      39
 i =        1, E =      -396.9483234654
 Be         0.0000758721       -0.0000932570        4.4411113093
 Be        -0.0000233861       -0.0000342456       18.5219842599
 Be         2.2399734861        1.2933043505       12.0816397200
 Be         2.2399153387        1.2935148717        3.2409321622
 Be         0.0000839701        2.5864494206       19.7221649378
 Be        -0.0000730560        2.5864224722       10.8814606391
  B         0.0000517755        0.0000113118       11.4720015852
  B         2.2399399914        1.2933185815       19.1125324646
  B        -0.0000353536        2.5863918875        3.8314727737
  O         1.3828504660        0.0013394865       11.5027279070
  O        -0.6925622784        1.1969049619       11.5027653106
  O         1.5497308794        2.6815251889       11.5027525148
  O         3.6228084679        1.2945920042       19.1432940299
  O         1.5473902029        2.4901766612       19.1432699513
  O         1.5497119465        0.0950302933       19.1432734967
  O         1.3827650938        2.5878887710        3.8622500909
  O        -0.6924847182        3.7834333695        3.8621763632
  O        -0.6902750779        1.3881576981        3.8622329192
  F         0.0000053185        0.0000192868        6.1344252280
  F         2.2400145745        1.2932379836       13.7749558123
  F         0.0000243792        2.5865012324       21.4154806286
 Cl        -0.0001577746        0.0000947830       16.6914924622
 Cl         2.2398236440        1.2933557667        1.4104402904
 Cl        -0.0000113182        2.5863196673        9.0509684122
  H         0.8259920604        2.0915898013       14.8419990760
  H        -0.8416312352        2.1185290245       14.8418567977
  H         0.0158062454        3.5493332863       14.8419478346
  H         3.0660695984        0.7984198208        7.2014145524
  H         1.3982338510        0.8254860119        7.2013325795
  H         2.2556673560        2.2560486794        7.2014741194
  H         2.2400237481        1.2933553606        8.5815193377
  H         0.0001072866        2.5864917594       16.2220500845
  H         0.0000718219       -0.0000841869        0.9409950135
  H        -1.4140233865        3.3847891910       22.4825286541
  H         1.3984036545        3.4117748814       22.4824720381
  H         0.0157754817        0.9628587230       22.4823853876
  N         2.2399343631        1.2931441915        7.5558341352
  N        -0.0001233899        2.5865233961       15.1963648076
  N        -0.0000693541        0.0000997934       -0.0846905724
      39
 i =        2, E =      -396.9692769023
 Be        -0.0000695630       -0.0000182620        4.4457340198
 Be        -0.0000874029       -0.0000053747       18.5735515816
 Be         2.2399425043        1.2933273022       12.0862631363
 Be         2.2399387745        1.2933661129        3.2924975068
 Be         0.0000733209        2.5864204326       19.7267881773
 Be        -0.0000330662        2.5864477888       10.9330270002
  B         0.0000394484       -0.0000359838       11.5292694247
  B         2.2399852652        1.2933165127       19.1698039608
  B         0.0000673352        2.5864957231        3.8887388918
  O         1.3835496448        0.0081892704       11.5222976511
  O        -0.6988203813        1.1941028758       11.5223808978
  O         1.5553056600        2.6774576131       11.5223513770
  O         3.6235400148        1.3014492426       19.1629041139
  O         1.5411025485        2.4873518236       19.1628695457
  O         1.5552638451        0.0910087689       19.1628491037
  O         1.3835868369        2.5946097161        3.8818881465
  O        -0.6989355347        3.7805669492        3.8817334594
  O        -0.6846788962        1.3842667776        3.8818174250
  F         0.0000087927       -0.0000042959        6.0978740460
  F         2.2399889825        1.2932338604       13.7384084569
  F         0.0000490083        2.5865113845       21.3789303225
 Cl        -0.0003225559        0.0001784552       16.6895880091
 Cl         2.2396744614        1.2934762565        1.4085345364
 Cl        -0.0000253512        2.5861353340        9.0490627675
  H         0.8462896161        2.0812589309       14.8250741732
  H        -0.8605921631        2.1062334937       14.8252536521
  H         0.0144851058        3.5719614934       14.8252096103
  H         3.0862322649        0.7880961594        7.1846816300
  H         1.3793352850        0.8130776148        7.1847219997
  H         2.2544138951        2.2787934614        7.1845467109
  H         2.2399642287        1.2932779416        8.5467958221
  H         0.0000088239        2.5864757504       16.1873279005
  H         0.0000385018        0.0000082848        0.9062718990
  H        -1.3936983021        3.3745019288       22.4656003193
  H         1.3793830188        3.3994735592       22.4657411746
  H         0.0144811078        0.9854313831       22.4657763029
  N         2.2400196321        1.2933630756        7.5206792367
  N         0.0001101007        2.5864865088       15.1612113159
  N         0.0000792342       -0.0000832282       -0.1198448264
      39
 i =        3, E =      -396.9878307902
 Be         0.0001606021       -0.0000521535        4.4849449084
 Be         0.0000527863        0.0000422885       18.6625192840
 Be         2.2400065388        1.2932745749       12.1254733372
 Be         2.2398646061        1.2934840960        3.3814629470
 Be         0.0000400803        2.5865247277       19.7660004921
 Be        -0.0000890232        2.5863462244       11.0219950043
  B         0.0000611035        0.0000614931       11.5504939066
  B         2.2398734965        1.2932282375       19.1910262199
  B        -0.0001151111        2.5864011239        3.9099581815
  O         1.3861278127        0.0071507548       11.5853742346
  O        -0.6992996256        1.1967675358       11.5854823643
  O         1.5532137526        2.6758215782       11.5854256351
  O         3.6259843824        1.3004670181       19.2259973584
  O         1.5407212424        2.4900823882       19.2259656843
  O         1.5531653531        0.0892311711       19.2259100023
  O         1.3859846853        2.5937608654        3.9449417949
  O        -0.6991843251        3.7832934858        3.9449075973
  O        -0.6868590012        1.3824020896        3.9448421739
  F        -0.0000612583        0.0000034002        6.0850764027
  F         2.2399378956        1.2932621116       13.7256143537
  F        -0.0000259994        2.5865326023       21.3661351134
 Cl        -0.0005144613        0.0002891350       16.6855400873
 Cl         2.2395102785        1.2935955541        1.4044844209
 Cl        -0.0000199426        2.5859282375        9.0450142342
  H         0.8579774776        2.0780437031       14.7738622231
  H        -0.8691237047        2.0978354808       14.7739544849
  H         0.0113570899        3.5835882756       14.7739527858
  H         3.0978012845        0.7848867711        7.1334253913
  H         1.3708616473        0.8045780565        7.1334201713
  H         2.2513482748        2.2905226091        7.1333259907
  H         2.2399901142        1.2934085805        8.4923510569
  H         0.0001372249        2.5864277702       16.1328868101
  H         0.0001548389       -0.0000774858        0.8518287863
  H        -1.3820023363        3.3712957599       22.4143863036
  H         1.3708209645        3.3910593131       22.4144821401
  H         0.0113638422        0.9970226546       22.4144754557
  N         2.2400092732        1.2934062899        7.4630922818
  N         0.0001392485        2.5864564647       15.1036276320
  N         0.0001229713       -0.0000939434       -0.1774304953
      39
 i =        4, E =      -396.9973374144
 Be        -0.0001182468        0.0000631028        4.5220186794
 Be        -0.0000329733       -0.0000114277       18.7334995938
 Be         2.2400527440        1.2932902724       12.1625578114
 Be         2.2399426611        1.2931479754        3.4524432170
 Be        -0.0001021896        2.5865691017       19.8030776497
 Be        -0.0000593316        2.5864835433       11.0929746119
  B         0.0000046587       -0.0000891652       11.6293525323
  B         2.2400239870        1.2932605892       19.2698848373
  B         0.0000271024        2.5865957421        3.9888199100
  O         1.3863426161        0.0049302392       11.6236240235
  O        -0.6973222722        1.1981097876       11.6237846637
  O         1.5510367098        2.6766579439       11.6236732881
  O         3.6263404615        1.2981183464       19.2642773783
  O         1.5424838548        2.4913610797       19.2642267262
  O         1.5510057631        0.0902821068       19.2641654340
  O         1.3863888474        2.5912678833        3.9832039775
  O        -0.6975924260        3.7845906350        3.9831939926
  O        -0.6889366480        1.3835795986        3.9830799147
  F         0.0001022508       -0.0000201708        6.0999700110
  F         2.2399879633        1.2932563127       13.7405245053
  F         0.0000026069        2.5865277372       21.3810345804
 Cl        -0.0005126921        0.0003068536       16.6861416770
 Cl         2.2394970942        1.2936150685        1.4050864006
 Cl        -0.0000175384        2.5859095564        9.0456138292
  H         0.8520087935        2.0850979220       14.7124361803
  H        -0.8600682908        2.0994408430       14.7124946337
  H         0.0082931467        3.5749346547       14.7124887180
  H         3.0918876569        0.7919443355        7.0719486633
  H         1.3798863868        0.8062424053        7.0719569610
  H         2.2482481894        2.2818257712        7.0719048127
  H         2.2400024423        1.2934941451        8.4431034150
  H         0.0002114402        2.5864015732       16.0836434591
  H         0.0002176774       -0.0001289803        0.8025833012
  H        -1.3879810545        3.3783218552       22.3529562009
  H         1.3798974986        3.3926556191       22.3530220428
  H         0.0082889129        0.9883781772       22.3530078210
  N         2.2399997316        1.2933462951        7.4126536887
  N         0.0000854948        2.5864745714       15.0531931450
  N         0.0000915424       -0.0000508541       -0.2278673398
      39
 i =        5, E =      -397.0016562439
 Be         0.0000406075        0.0000428124        4.5583944612
 Be        -0.0000541589        0.0001446275       18.7814148226
 Be         2.2399370852        1.2932166130       12.1989282601
 Be         2.2398794749        1.2932747903        3.5003549527
 Be        -0.0000066443        2.5865144704       19.8394522186
 Be         0.0000526394        2.5864089386       11.1408902650
  B         0.0000219455        0.0000008072       11.6552249071
  B         2.2398922490        1.2931983082       19.2957561426
  B        -0.0000866669        2.5864900390        4.0146845830
  O         1.3858776687       -0.0068181318       11.6717567481
  O        -0.6871048584        1.2035108609       11.6720996236
  O         1.5413075799        2.6829684863       11.6718510017
  O         3.6256942265        1.2865394892       19.3125536747
  O         1.5529211597        2.4968271517       19.3124334608
  O         1.5412048294        0.0963621642       19.3123113649
  O         1.3857674832        2.5797768000        4.0314751201
  O        -0.6871124156        3.7900146909        4.0313783728
  O        -0.6988089996        1.3896614611        4.0312256244
  F        -0.0000696068        0.0000348372        6.1393907773
  F         2.2400066095        1.2932748285       13.7799312940
  F        -0.0000285252        2.5865227752       21.4204513997
 Cl        -0.0003787489        0.0002201702       16.6884306876
 Cl         2.2396326030        1.2934918631        1.4073719212
 Cl        -0.0000296962        2.5860656064        9.0479022906
  H         0.8457408332        2.0918642363       14.6588716385
  H        -0.8511440390        2.1014257718       14.6591336245
  H         0.0055966252        3.5661945564       14.6590468765
  H         3.0856907557        0.7986987369        7.0185128058
  H         1.3887929883        0.8082587965        7.0185876052
  H         2.2455406337        2.2730184779        7.0183291337
  H         2.2399944521        1.2934217799        8.3941128704
  H         0.0001461420        2.5864257915       16.0346569552
  H         0.0001722594       -0.0000757292        0.7535941607
  H        -1.3942439637        3.3850822873       22.2993909999
  H         1.3888447424        3.3946526478       22.2995738137
  H         0.0055908363        0.9796541089       22.2996431869
  N         2.2400151963        1.2933830470        7.3652800417
  N         0.0001204685        2.5864780114       15.0058239570
  N         0.0001098558       -0.0000843726       -0.2752390697
      39
 i =        6, E =      -397.0029175900
 Be        -0.0000879715        0.0000277305        4.5660367344
 Be        -0.0000667744       -0.0000537791       18.7896159068
 Be         2.2400922139        1.2932245986       12.2065845810
 Be         2.2399393416        1.2932185011        3.5085526244
 Be        -0.0001254162        2.5866099603       19.8471034773
 Be        -0.0000394833        2.5865122033       11.1490892015
  B        -0.0000026237       -0.0001055342       11.6564984753
  B         2.2400173464        1.2932838796       19.2970326953
  B        -0.0000367438        2.5865532761        4.0159504484
  O         1.3846566431       -0.0056810563       11.6768066662
  O        -0.6872257368        1.2019667957       11.6771539038
  O         1.5426804428        2.6834012969       11.6769052923
  O         3.6246550024        1.2874460084       19.3176141147
  O         1.5524944081        2.4952007475       19.3174803260
  O         1.5426436378        0.0970628290       19.3173624919
  O         1.3846159205        2.5806835530        4.0365274995
  O        -0.6874752805        3.7884974146        4.0364309837
  O        -0.6973054141        1.3902684823        4.0362777883
  F         0.0000770801        0.0000125278        6.1525828223
  F         2.2399083232        1.2932313851       13.7931395763
  F         0.0000275666        2.5865198434       21.4336523946
 Cl        -0.0002298931        0.0001579605       16.7012371318
 Cl         2.2397704465        1.2933848811        1.4201754974
 Cl        -0.0000178238        2.5862266990        9.0607058655
  H         0.8455110782        2.0930733480       14.6462010171
  H        -0.8500443282        2.1009872938       14.6462850197
  H         0.0046469112        3.5654455510       14.6462728758
  H         3.0855055513        0.7998668374        7.0057240483
  H         1.3898983809        0.8078174172        7.0057491748
  H         2.2445828817        2.2722163427        7.0056605683
  H         2.2400288468        1.2934720235        8.3766844260
  H         0.0002067002        2.5864411574       16.0172298617
  H         0.0001897913       -0.0001312668        0.7361653648
  H        -1.3944665191        3.3863018060       22.2867154146
  H         1.3899545231        3.3942278300       22.2867940391
  H         0.0046468895        0.9789197617       22.2868021808
  N         2.2399879856        1.2932670646        7.3492255849
  N         0.0000032649        2.5865059762       14.9897710444
  N         0.0000287556       -0.0000003671       -0.2912934239
      39
 i =        7, E =      -396.9802984785
 Be        -0.0007238818       -0.0001144192        4.7039601595
 Be        -0.0002310118       -0.0008965238       18.8856400439
 Be         2.2406291891        1.2931562777       12.3446987653
 Be         2.2402280314        1.2930628943        3.6045285326
 Be        -0.0003307176        2.5868415415       19.9851532706
 Be        -0.0002355782        2.5869357959       11.2450905674
  B         0.0000309804       -0.0003802341       11.7107066981
  B         2.2403784709        1.2936254226       19.3512584742
  B         0.0002558670        2.5866858396        4.0701043850
  O         1.3743698319        0.0019813736       11.7724422432
  O        -0.6877218312        1.1895106156       11.7732030355
  O         1.5537780924        2.6884126537       11.7726328940
  O         3.6149215531        1.2941998044       19.4135995025
  O         1.5509184817        2.4823650934       19.4132016775
  O         1.5539237552        0.1028689118       19.4130826001
  O         1.3744832937        2.5875293172        4.1323646387
  O        -0.6888073174        3.7761136236        4.1321015459
  O        -0.6858039740        1.3958126374        4.1319978242
  F         0.0007372014       -0.0001400480        6.3818139266
  F         2.2396321257        1.2930037486       14.0226155189
  F         0.0001334848        2.5866693219       21.6630273922
 Cl         0.0016868360       -0.0008475681       16.8595121321
 Cl         2.2416378270        1.2919467896        1.5784083340
 Cl         0.0000307580        2.5884079047        9.2189480563
  H         0.8464053150        2.1089789981       14.4574010533
  H        -0.8374745850        2.0919520814       14.4564262878
  H        -0.0100095354        3.5589012298       14.4568872928
  H         3.0868490213        0.8152705385        6.8162291731
  H         1.4026633872        0.7984679813        6.8159238977
  H         2.2300843452        2.2650661676        6.8168785100
  H         2.2403391563        1.2935976972        8.1266881853
  H         0.0004351417        2.5867109937       15.7672552488
  H         0.0000995930       -0.0004503819        0.4861653648
  H        -1.3934459821        3.4023825198       22.0979087220
  H         1.4026495917        3.3853540797       22.0973461337
  H        -0.0098727244        0.9725452411       22.0969563014
  N         2.2397710011        1.2923527063        7.1129781853
  N        -0.0009234224        2.5867512848       14.7535476053
  N        -0.0006351503        0.0006604410       -0.5275403678
      39
 i =        8, E =      -397.0058784088
 Be        -0.0000712506       -0.0000476754        4.5940400707
 Be        -0.0000989131       -0.0000262920       18.8079332340
 Be         2.2400243488        1.2932010745       12.2346235032
 Be         2.2399651458        1.2932856288        3.5268510522
 Be         0.0000318433        2.5864660166       19.8751332208
 Be         0.0000836125        2.5865373618       11.1674022992
  B         0.0000566995       -0.0000109957       11.6764917932
  B         2.2399304149        1.2932656157       19.3170256124
  B        -0.0000216116        2.5864604548        4.0359240385
  O         1.3824471772       -0.0072989576       11.7096316573
  O        -0.6848322951        1.2008327259       11.7098861219
  O         1.5425592423        2.6861822435       11.7096676211
  O         3.6223361795        1.2859466628       19.3503313146
  O         1.5550586922        2.4940669905       19.3502584537
  O         1.5424514127        0.0996619582       19.3501862480
  O         1.3823353296        2.5792223424        4.0692266714
  O        -0.6849027832        3.7873399519        4.0691566202
  O        -0.6975334973        1.3929048713        4.0691254337
  F        -0.0000691977       -0.0000187225        6.2036817414
  F         2.2399416346        1.2932563127       13.8442915917
  F        -0.0000343130        2.5865693853       21.4847844889
 Cl         0.0003239189       -0.0001718515       16.7504094839
 Cl         2.2403313430        1.2929581123        1.4693299970
 Cl        -0.0000216566        2.5868751984        9.1098716394
  H         0.8486324479        2.0968596835       14.5929305228
  H        -0.8485308611        2.0963130859       14.5930860145
  H        -0.0003697457        3.5664385246       14.5930588162
  H         3.0887464171        0.8035169998        6.9524862305
  H         1.3914984950        0.8029975551        6.9525450619
  H         2.2396775693        2.2730393038        6.9523906631
  H         2.2400693542        1.2933509347        8.3056285448
  H         0.0001058034        2.5865327579       15.9461816006
  H         0.0000667746       -0.0000952703        0.6651083374
  H        -1.3912945912        3.3901522081       22.2334506417
  H         1.3914935011        3.3896036370       22.2335648117
  H        -0.0003196227        0.9799455357       22.2335902553
  N         2.2399957964        1.2931717678        7.2798916729
  N        -0.0000889039        2.5865557123       14.9204449358
  N        -0.0000550482        0.0000519760       -0.3606273375
      39
 i =        9, E =      -397.0070918100
 Be        -0.0002069622       -0.0000279968        4.5807103150
 Be        -0.0000774630       -0.0002151055       18.8013463805
 Be         2.2402003081        1.2932785860       12.2213098675
 Be         2.2400415160        1.2931335638        3.5202619758
 Be        -0.0001517290        2.5865656651       19.8618133836
 Be        -0.0000236988        2.5866700465       11.1608190094
  B         0.0000270441       -0.0001586078       11.6845760867
  B         2.2401114298        1.2933409346       19.3251107908
  B         0.0000428417        2.5865713386        4.0440142962
  O         1.3829977624       -0.0100027440       11.7145166211
  O        -0.6825051478        1.2027130477       11.7145122939
  O         1.5396600845        2.6870162197       11.7145077171
  O         3.6231049967        1.2829979871       19.3550396486
  O         1.5570666301        2.4958857395       19.3550413552
  O         1.5396574482        0.1008061641       19.3550354501
  O         1.3829988164        2.5762382177        4.0739318456
  O        -0.6828541664        3.7892619590        4.0739736579
  O        -0.7002555759        1.3939642021        4.0739727293
  F         0.0001985446       -0.0000028506        6.1820180466
  F         2.2398961968        1.2931852042       13.8226685482
  F         0.0000989118        2.5864675070       21.4631470282
 Cl         0.0002368088       -0.0001132083       16.7498813299
 Cl         2.2402512854        1.2930326993        1.4687994604
 Cl        -0.0000080158        2.5867762661        9.1093464475
  H         0.8494439384        2.0966850353       14.5933871194
  H        -0.8490841621        2.0957491598       14.5934366015
  H        -0.0006091496        3.5671963585       14.5934436042
  H         3.0895205548        0.8033183972        6.9528813120
  H         1.3909650038        0.8024151259        6.9528834256
  H         2.2394242440        2.2738312720        6.9528404882
  H         2.2400769007        1.2933947448        8.3098863097
  H         0.0001501240        2.5865149509       15.9504416343
  H         0.0000979136       -0.0001188156        0.6693689371
  H        -1.3904928549        3.3899564645       22.2338895832
  H         1.3909356197        3.3890241472       22.2339550283
  H        -0.0005718852        0.9807020870       22.2339485125
  N         2.2399698755        1.2931492466        7.2826814305
  N        -0.0001189812        2.5865540746       14.9232384779
  N        -0.0000656657        0.0000684407       -0.3578375635
      39
 i =       10, E =      -397.0076142901
 Be         0.0002400275       -0.0000585110        4.5747777208
 Be        -0.0000193668        0.0002874468       18.7922400468
 Be         2.2397877339        1.2931947578       12.2152084112
 Be         2.2398938512        1.2934188786        3.5111493689
 Be         0.0002770727        2.5862505846       19.8557767851
 Be         0.0002729300        2.5864235604       11.1517252312
  B         0.0000890726        0.0002125946       11.6968287064
  B         2.2397228183        1.2930925051       19.3373473284
  B        -0.0001213631        2.5863007097        4.0562728449
  O         1.3840004411       -0.0096216146       11.7185083109
  O        -0.6840946906        1.2032336689       11.7183581726
  O         1.5401653000        2.6860790761       11.7184509684
  O         3.6236291696        1.2840449027       19.3588959651
  O         1.5563796275        2.4965707211       19.3589706974
  O         1.5399520686        0.0990663001       19.3590375612
  O         1.3837877448        2.5773867590        4.0778292517
  O        -0.6836408598        3.7896850690        4.0778481450
  O        -0.7001537576        1.3924169793        4.0779830825
  F        -0.0004120361       -0.0000272092        6.1703332764
  F         2.2401847023        1.2933768912       13.8107018271
  F        -0.0002397133        2.5866286052       21.4512959708
 Cl         0.0001941976       -0.0001573033       16.7587303599
 Cl         2.2402536960        1.2930302471        1.4776368823
 Cl        -0.0000244912        2.5867881788        9.1182099054
  H         0.8507784120        2.0974307679       14.5836784525
  H        -0.8491010667        2.0942396616       14.5839711745
  H        -0.0019641265        3.5679771430       14.5838803814
  H         3.0908397476        0.8040815275        6.9433122251
  H         1.3909824929        0.8008475883        6.9433955800
  H         2.2381443918        2.2746158707        6.9431227872
  H         2.2400377116        1.2932829669        8.3035348146
  H         0.0000318723        2.5865258295       15.9440966268
  H         0.0000414949       -0.0000423622        0.6630190346
  H        -1.3891564347        3.3907056553       22.2241982514
  H         1.3909211467        3.3874946296       22.2243872056
  H        -0.0019043679        0.9814650760       22.2244489266
  N         2.2400103225        1.2932604953        7.2749686493
  N        -0.0000082324        2.5865350444       14.9155310875
  N         0.0000006695       -0.0000122602       -0.3655483604
      39
 i =       11, E =      -397.0078234211
 Be        -0.0002285518       -0.0000118280        4.5844104241
 Be         0.0000117164       -0.0003001599       18.7950500863
 Be         2.2402816916        1.2933423085       12.2249359238
 Be         2.2401162234        1.2930177009        3.5139768150
 Be        -0.0002203188        2.5866130879       19.8654648171
 Be        -0.0000873274        2.5867345700       11.1545254437
  B         0.0000206389       -0.0001739493       11.7125594387
  B         2.2401790449        1.2933323083       19.3530961919
  B         0.0000917237        2.5866333957        4.0720094841
  O         1.3841563590       -0.0077044872       11.7316509576
  O        -0.6849832102        1.2026001735       11.7313456719
  O         1.5409477394        2.6848922455       11.7315268093
  O         3.6243531420        1.2851863271       19.3719209059
  O         1.5545184289        2.4957411255       19.3720734431
  O         1.5410248140        0.0987485169       19.3721231759
  O         1.3842395215        2.5784025495        4.0908593533
  O        -0.6854246508        3.7891396596        4.0910130022
  O        -0.6988613466        1.3919172478        4.0910956987
  F         0.0002880220       -0.0000578554        6.1847196569
  F         2.2397745996        1.2931945350       13.8252430979
  F         0.0002048233        2.5863619597       21.4657722404
 Cl         0.0003071730       -0.0001789939       16.7798941056
 Cl         2.2403636700        1.2929812330        1.4988194137
 Cl         0.0000198463        2.5869205107        9.1393612673
  H         0.8524509281        2.0996851248       14.5563733460
  H        -0.8480725338        2.0916747993       14.5565741014
  H        -0.0047492113        3.5683482751       14.5565170159
  H         3.0925351096        0.8062468825        6.9159312594
  H         1.3920420644        0.7982500903        6.9160229618
  H         2.2353369332        2.2749520022        6.9158222778
  H         2.2400391824        1.2932870928        8.2753770928
  H         0.0000464666        2.5865419449       15.9159438609
  H         0.0000203168       -0.0000471579        0.6348600653
  H        -1.3874874834        3.3929309830       22.1968606204
  H         1.3919628894        3.3849455854       22.1970269241
  H        -0.0047236785        0.9818474968       22.1970764736
  N         2.2399990515        1.2931938226        7.2465597329
  N        -0.0000792415        2.5865530005       14.8871260487
  N        -0.0000368947        0.0000239583       -0.3939573540
      39
 i =       12, E =      -397.0080293775
 Be        -0.0000410363       -0.0000108150        4.5796410205
 Be         0.0000104903       -0.0000726405       18.7878060793
 Be         2.2400804643        1.2932925328       12.2202201204
 Be         2.2400200857        1.2931663999        3.5067497099
 Be        -0.0000295095        2.5865105273       19.8607258134
 Be         0.0000200697        2.5865893358       11.1472756481
  B         0.0000439120       -0.0000199946       11.7034002640
  B         2.2400116481        1.2932353993       19.3439403768
  B         0.0000168371        2.5865134550        4.0628870073
  O         1.3845060959       -0.0073748978       11.7224569996
  O        -0.6857632088        1.2026713056       11.7222738131
  O         1.5413473791        2.6844732403       11.7223687888
  O         3.6244896710        1.2858009889       19.3628194747
  O         1.5541216864        2.4958837713       19.3629161370
  O         1.5413184073        0.0980008147       19.3629651946
  O         1.3844830370        2.5790521762        4.0817376949
  O        -0.6858577015        3.7891647457        4.0818558610
  O        -0.6986517819        1.3912549423        4.0819198306
  F         0.0000958042       -0.0000067500        6.1805461729
  F         2.2400140267        1.2932328730       13.8211649170
  F         0.0000118478        2.5864922727       21.4616535143
 Cl         0.0002156059       -0.0001455934       16.7716883740
 Cl         2.2402779908        1.2930410979        1.4906311576