 DBCSR| CPU Multiplication driver                                           XSMM (U)
 DBCSR| Multrec recursion limit                                              512 (U)
 DBCSR| Multiplication stack size                                           1000 (D)
 DBCSR| Maximum elements for images                                    UNLIMITED (U)
 DBCSR| Multiplicative factor virtual images                                   1 (U)
 DBCSR| Use multiplication densification                                       T (D)
 DBCSR| Multiplication size stacks                                             3 (U)
 DBCSR| Use memory pool for CPU allocation                                     F (U)
 DBCSR| Number of 3D layers                                               SINGLE (U)
 DBCSR| Use MPI memory allocation                                              F (U)
 DBCSR| Use RMA algorithm                                                      F (U)
 DBCSR| Use Communication thread                                               T (U)
 DBCSR| Communication thread load                                             79 (D)
 DBCSR| MPI: My process id                                                     0
 DBCSR| MPI: Number of processes                                              60
 DBCSR| OMP: Current number of threads                                         3
 DBCSR| OMP: Max number of threads                                             3
 DBCSR| Split modifier for TAS multiplication algorithm                  1.0E+00 (U)


  **** **** ******  **  PROGRAM STARTED AT               2024-10-20 05:22:26.064
 ***** ** ***  *** **   PROGRAM STARTED ON                          fbb6991ff646
 **    ****   ******    PROGRAM STARTED BY                             <unknown>
 ***** **    ** ** **   PROGRAM PROCESS ID                                   586
  **** **  *******  **  PROGRAM STARTED IN                                  /mnt

 CP2K| version string:                                       CP2K version 2024.3
 CP2K| source code revision number:                                  git:6712648
 CP2K| cp2kflags: omp libint fftw3 libxc libgrpp pexsi elpa parallel scalapack c
 CP2K|            osma quip xsmm plumed2 spglib libdftd4 sirius libvori libbqb l
 CP2K|            libtorch libvdwxc hdf5
 CP2K| is freely available from                            https://www.cp2k.org/
 CP2K| Program compiled at                          Mon Sep  9 14:39:12 UTC 2024
 CP2K| Program compiled on                                          5c005b387e2b
 CP2K| Program compiled for                                                local
 CP2K| Data directory path                                        /opt/cp2k/data
 CP2K| Input file name                                             nbbfc-geo.inp

 GLOBAL| Force Environment number                                              1
 GLOBAL| Basis set file name                                        BASIS_MOLOPT
 GLOBAL| Potential file name                                           POTENTIAL
 GLOBAL| MM Potential file name                                     MM_POTENTIAL
 GLOBAL| Coordinate file name                                      __STD_INPUT__
 GLOBAL| Method name                                                        CP2K
 GLOBAL| Project name                                                      NBBFC
 GLOBAL| Run type                                                        GEO_OPT
 GLOBAL| FFT library                                                       FFTW3
 GLOBAL| Diagonalization library                                       ScaLAPACK
 GLOBAL| DGEMM library                                                      BLAS
 GLOBAL| Orthonormality check for eigenvectors                          DISABLED
 GLOBAL| Matrix multiplication library                                     COSMA
 GLOBAL| All-to-all communication in single precision                          F
 GLOBAL| FFTs using library dependent lengths                                  F
 GLOBAL| Grid backend                                                       AUTO
 GLOBAL| Global print level                                               MEDIUM
 GLOBAL| MPI I/O enabled                                                       T
 GLOBAL| Total number of message passing processes                            60
 GLOBAL| Number of threads for this process                                    3
 GLOBAL| This output is from process                                           0
 GLOBAL| Stack size for threads created by OpenMP (OMP_STACKSIZE)            16M
 GLOBAL| CPU model name                                            AMD EPYC 9B14
 GLOBAL| CPUID                                                              1003
 GLOBAL| Compiled for CPUID                                                    0

 *** HINT in environment.F:921 :: The compiler target flags (generic) used ***
 *** to build this binary cannot exploit all extensions of this CPU model  ***
 *** (x86_avx512). Consider compiler target flags as part of FCFLAGS and   ***
 *** CFLAGS (ARCH file).                                                   ***


 MEMORY| system memory details [Kb]
 MEMORY|                        rank 0           min           max       average
 MEMORY| MemTotal            365017212     365017212     365017212     365017212
 MEMORY| MemFree             354001488     354001488     354001488     354001488
 MEMORY| Buffers                 35040         35040         35040         35040
 MEMORY| Cached                 834228        834228        834232        834230
 MEMORY| Slab                   548100        548100        548132        548126
 MEMORY| SReclaimable            79020         79020         79020         79020
 MEMORY| MemLikelyFree       354949776     354949776     354949780     354949778


 *** Fundamental physical constants (SI units) ***

 *** Literature: B. J. Mohr and B. N. Taylor,
 ***             CODATA recommended values of the fundamental physical
 ***             constants: 2006, Web Version 5.1
 ***             http://physics.nist.gov/constants

 Speed of light in vacuum [m/s]                             2.99792458000000E+08
 Magnetic constant or permeability of vacuum [N/A**2]       1.25663706143592E-06
 Electric constant or permittivity of vacuum [F/m]          8.85418781762039E-12
 Planck constant (h) [J*s]                                  6.62606896000000E-34
 Planck constant (h-bar) [J*s]                              1.05457162825177E-34
 Elementary charge [C]                                      1.60217648700000E-19
 Electron mass [kg]                                         9.10938215000000E-31
 Electron g factor [ ]                                     -2.00231930436220E+00
 Proton mass [kg]                                           1.67262163700000E-27
 Fine-structure constant                                    7.29735253760000E-03
 Rydberg constant [1/m]                                     1.09737315685270E+07
 Avogadro constant [1/mol]                                  6.02214179000000E+23
 Boltzmann constant [J/K]                                   1.38065040000000E-23
 Atomic mass unit [kg]                                      1.66053878200000E-27
 Bohr radius [m]                                            5.29177208590000E-11

 *** Conversion factors ***

 [u] -> [a.u.]                                              1.82288848426455E+03
 [Angstrom] -> [Bohr] = [a.u.]                              1.88972613288564E+00
 [a.u.] = [Bohr] -> [Angstrom]                              5.29177208590000E-01
 [a.u.] -> [s]                                              2.41888432650478E-17
 [a.u.] -> [fs]                                             2.41888432650478E-02
 [a.u.] -> [J]                                              4.35974393937059E-18
 [a.u.] -> [N]                                              8.23872205491840E-08
 [a.u.] -> [K]                                              3.15774647902944E+05
 [a.u.] -> [kJ/mol]                                         2.62549961709828E+03
 [a.u.] -> [kcal/mol]                                       6.27509468713739E+02
 [a.u.] -> [Pa]                                             2.94210107994716E+13
 [a.u.] -> [bar]                                            2.94210107994716E+08
 [a.u.] -> [atm]                                            2.90362800883016E+08
 [a.u.] -> [eV]                                             2.72113838565563E+01
 [a.u.] -> [Hz]                                             6.57968392072181E+15
 [a.u.] -> [1/cm] (wave numbers)                            2.19474631370540E+05
 [a.u./Bohr**2] -> [1/cm]                                   5.14048714338585E+03
 

 CELL_TOP| Volume [angstrom^3]:                                       398.405275
 CELL_TOP| Vector a [angstrom     4.480     0.000     0.000   |a| =     4.479968
 CELL_TOP| Vector b [angstrom    -2.240     3.880     0.000   |b| =     4.479968
 CELL_TOP| Vector c [angstrom     0.000     0.000    22.922   |c| =    22.921583
 CELL_TOP| Angle (b,c), alpha [degree]:                                90.000000
 CELL_TOP| Angle (a,c), beta  [degree]:                                90.000000
 CELL_TOP| Angle (a,b), gamma [degree]:                               120.000000
 CELL_TOP| Requested initial symmetry:                       HEXAGONAL_GAMMA_120
 CELL_TOP| Numerically orthorhombic:                                          NO
 CELL_TOP| Periodicity                                                       XYZ

 GENERATE|  Preliminary Number of Bonds generated:                             0
 GENERATE|  Achieved consistency in connectivity generation.

 CELL| Volume [angstrom^3]:                                           398.405275
 CELL| Vector a [angstrom]:       4.480     0.000     0.000   |a| =     4.479968
 CELL| Vector b [angstrom]:      -2.240     3.880     0.000   |b| =     4.479968
 CELL| Vector c [angstrom]:       0.000     0.000    22.922   |c| =    22.921583
 CELL| Angle (b,c), alpha [degree]:                                    90.000000
 CELL| Angle (a,c), beta  [degree]:                                    90.000000
 CELL| Angle (a,b), gamma [degree]:                                   120.000000
 CELL| Requested initial symmetry:                           HEXAGONAL_GAMMA_120
 CELL| Numerically orthorhombic:                                              NO
 CELL| Periodicity                                                           XYZ

 CELL_REF| Volume [angstrom^3]:                                       398.405275
 CELL_REF| Vector a [angstrom     4.480     0.000     0.000   |a| =     4.479968
 CELL_REF| Vector b [angstrom    -2.240     3.880     0.000   |b| =     4.479968
 CELL_REF| Vector c [angstrom     0.000     0.000    22.922   |c| =    22.921583
 CELL_REF| Angle (b,c), alpha [degree]:                                90.000000
 CELL_REF| Angle (a,c), beta  [degree]:                                90.000000
 CELL_REF| Angle (a,b), gamma [degree]:                               120.000000
 CELL_REF| Requested initial symmetry:                       HEXAGONAL_GAMMA_120
 CELL_REF| Numerically orthorhombic:                                          NO
 CELL_REF| Periodicity                                                       XYZ

 *******************************************************************************
                                    Kpoints
 *******************************************************************************
 BRILLOUIN| K-point scheme                                        Monkhorst-Pack
 BRILLOUIN| K-Point grid                                             8    8    2
 BRILLOUIN| Accuracy in Symmetry determination                      0.100000E-05
 BRILLOUIN| K-Point point group symmetrization                               OFF
 BRILLOUIN| Wavefunction type                                            COMPLEX
 BRILLOUIN| List of Kpoints [2 Pi/Bohr]                                       64
 BRILLOUIN| Number           Weight            X              Y              Z
 BRILLOUIN|     1           0.01562       -0.43750       -0.43750       -0.25000
 BRILLOUIN|     2           0.01562       -0.43750       -0.43750        0.25000
 BRILLOUIN|     3           0.01562       -0.43750       -0.31250       -0.25000
 BRILLOUIN|     4           0.01562       -0.43750       -0.31250        0.25000
 BRILLOUIN|     5           0.01562       -0.43750       -0.18750       -0.25000
 BRILLOUIN|     6           0.01562       -0.43750       -0.18750        0.25000
 BRILLOUIN|     7           0.01562       -0.43750       -0.06250       -0.25000
 BRILLOUIN|     8           0.01562       -0.43750       -0.06250        0.25000
 BRILLOUIN|     9           0.01562       -0.43750        0.06250       -0.25000
 BRILLOUIN|    10           0.01562       -0.43750        0.06250        0.25000
 BRILLOUIN|    11           0.01562       -0.43750        0.18750       -0.25000
 BRILLOUIN|    12           0.01562       -0.43750        0.18750        0.25000
 BRILLOUIN|    13           0.01562       -0.43750        0.31250       -0.25000
 BRILLOUIN|    14           0.01562       -0.43750        0.31250        0.25000
 BRILLOUIN|    15           0.01562       -0.43750        0.43750       -0.25000
 BRILLOUIN|    16           0.01562       -0.43750        0.43750        0.25000
 BRILLOUIN|    17           0.01562       -0.31250       -0.43750       -0.25000
 BRILLOUIN|    18           0.01562       -0.31250       -0.43750        0.25000
 BRILLOUIN|    19           0.01562       -0.31250       -0.31250       -0.25000
 BRILLOUIN|    20           0.01562       -0.31250       -0.31250        0.25000
 BRILLOUIN|    21           0.01562       -0.31250       -0.18750       -0.25000
 BRILLOUIN|    22           0.01562       -0.31250       -0.18750        0.25000
 BRILLOUIN|    23           0.01562       -0.31250       -0.06250       -0.25000
 BRILLOUIN|    24           0.01562       -0.31250       -0.06250        0.25000
 BRILLOUIN|    25           0.01562       -0.31250        0.06250       -0.25000
 BRILLOUIN|    26           0.01562       -0.31250        0.06250        0.25000
 BRILLOUIN|    27           0.01562       -0.31250        0.18750       -0.25000
 BRILLOUIN|    28           0.01562       -0.31250        0.18750        0.25000
 BRILLOUIN|    29           0.01562       -0.31250        0.31250       -0.25000
 BRILLOUIN|    30           0.01562       -0.31250        0.31250        0.25000
 BRILLOUIN|    31           0.01562       -0.31250        0.43750       -0.25000
 BRILLOUIN|    32           0.01562       -0.31250        0.43750        0.25000
 BRILLOUIN|    33           0.01562       -0.18750       -0.43750       -0.25000
 BRILLOUIN|    34           0.01562       -0.18750       -0.43750        0.25000
 BRILLOUIN|    35           0.01562       -0.18750       -0.31250       -0.25000
 BRILLOUIN|    36           0.01562       -0.18750       -0.31250        0.25000
 BRILLOUIN|    37           0.01562       -0.18750       -0.18750       -0.25000
 BRILLOUIN|    38           0.01562       -0.18750       -0.18750        0.25000
 BRILLOUIN|    39           0.01562       -0.18750       -0.06250       -0.25000
 BRILLOUIN|    40           0.01562       -0.18750       -0.06250        0.25000
 BRILLOUIN|    41           0.01562       -0.18750        0.06250       -0.25000
 BRILLOUIN|    42           0.01562       -0.18750        0.06250        0.25000
 BRILLOUIN|    43           0.01562       -0.18750        0.18750       -0.25000
 BRILLOUIN|    44           0.01562       -0.18750        0.18750        0.25000
 BRILLOUIN|    45           0.01562       -0.18750        0.31250       -0.25000
 BRILLOUIN|    46           0.01562       -0.18750        0.31250        0.25000
 BRILLOUIN|    47           0.01562       -0.18750        0.43750       -0.25000
 BRILLOUIN|    48           0.01562       -0.18750        0.43750        0.25000
 BRILLOUIN|    49           0.01562       -0.06250       -0.43750       -0.25000
 BRILLOUIN|    50           0.01562       -0.06250       -0.43750        0.25000
 BRILLOUIN|    51           0.01562       -0.06250       -0.31250       -0.25000
 BRILLOUIN|    52           0.01562       -0.06250       -0.31250        0.25000
 BRILLOUIN|    53           0.01562       -0.06250       -0.18750       -0.25000
 BRILLOUIN|    54           0.01562       -0.06250       -0.18750        0.25000
 BRILLOUIN|    55           0.01562       -0.06250       -0.06250       -0.25000
 BRILLOUIN|    56           0.01562       -0.06250       -0.06250        0.25000
 BRILLOUIN|    57           0.01562       -0.06250        0.06250       -0.25000
 BRILLOUIN|    58           0.01562       -0.06250        0.06250        0.25000
 BRILLOUIN|    59           0.01562       -0.06250        0.18750       -0.25000
 BRILLOUIN|    60           0.01562       -0.06250        0.18750        0.25000
 BRILLOUIN|    61           0.01562       -0.06250        0.31250       -0.25000
 BRILLOUIN|    62           0.01562       -0.06250        0.31250        0.25000
 BRILLOUIN|    63           0.01562       -0.06250        0.43750       -0.25000
 BRILLOUIN|    64           0.01562       -0.06250        0.43750        0.25000
 *******************************************************************************

 *******************************************************************************
 *******************************************************************************
 **                                                                           **
 **     #####                         ##              ##                      **
 **    ##   ##            ##          ##              ##                      **
 **   ##     ##                       ##            ######                    **
 **   ##     ##  ##   ##  ##   #####  ##  ##   ####   ##    #####    #####    **
 **   ##     ##  ##   ##  ##  ##      ## ##   ##      ##   ##   ##  ##   ##   **
 **   ##  ## ##  ##   ##  ##  ##      ####     ###    ##   ######   ######    **
 **    ##  ###   ##   ##  ##  ##      ## ##      ##   ##   ##       ##        **
 **     #######   #####   ##   #####  ##  ##  ####    ##    #####   ##        **
 **           ##                                                    ##        **
 **                                                                           **
 **                                                ... make the atoms dance   **
 **                                                                           **
 **            Copyright (C) by CP2K developers group (2000-2024)             **
 **                      J. Chem. Phys. 152, 194103 (2020)                    **
 **                                                                           **
 *******************************************************************************

 DFT| Spin restricted Kohn-Sham (RKS) calculation                            RKS
 DFT| Multiplicity                                                             1
 DFT| Number of spin states                                                    1
 DFT| Charge                                                                   0
 DFT| Self-interaction correction (SIC)                                       NO
 DFT| Cutoffs: density                                              1.000000E-10
 DFT|          gradient                                             1.000000E-10
 DFT|          tau                                                  1.000000E-10
 DFT|          cutoff_smoothing_range                               0.000000E+00
 DFT| XC density smoothing                                                  NONE
 DFT| XC derivatives                                                          PW

 FUNCTIONAL| PBE:
 FUNCTIONAL| J.P.Perdew, K.Burke, M.Ernzerhof, Phys. Rev. Letter, vol. 77, n 18,
 FUNCTIONAL|  pp. 3865-3868, (1996) {spin unpolarized}                          

 vdW POTENTIAL|                                                   Pair Potential
 vdW POTENTIAL|          DFT-D3 (Version 3.1)
 vdW POTENTIAL|          Potential Form: S. Grimme et al, JCP 132: 154104 (2010)
 vdW POTENTIAL|          BJ Damping: S. Grimme et al, JCC 32: 1456 (2011)
 vdW POTENTIAL|          Cutoff Radius [Bohr]:                             30.24
 vdW POTENTIAL|          s6 Scaling Factor:                               1.0000
 vdW POTENTIAL|          a1 Damping Factor:                               0.4289
 vdW POTENTIAL|          s8 Scaling Factor:                               0.7875
 vdW POTENTIAL|          a2 Damping Factor:                               4.4407
 vdW POTENTIAL|          Cutoff for CN calculation:                   0.1000E-05

 QS| Method:                                                                 GPW
 QS| Density plane wave grid type                        NON-SPHERICAL FULLSPACE
 QS| Number of grid levels:                                                    5
 QS| Density cutoff [a.u.]:                                                300.0
 QS| Multi grid cutoff [a.u.]: 1) grid level                               300.0
 QS|                           2) grid level                               100.0
 QS|                           3) grid level                                33.3
 QS|                           4) grid level                                11.1
 QS|                           5) grid level                                 3.7
 QS| Grid level progression factor:                                          3.0
 QS| Relative density cutoff [a.u.]:                                        30.0
 QS| Interaction thresholds: eps_pgf_orb:                                1.0E-06
 QS|                         eps_filter_matrix:                          0.0E+00
 QS|                         eps_core_charge:                            1.0E-14
 QS|                         eps_rho_gspace:                             1.0E-12
 QS|                         eps_rho_rspace:                             1.0E-12
 QS|                         eps_gvg_rspace:                             1.0E-06
 QS|                         eps_ppl:                                    1.0E-02
 QS|                         eps_ppnl:                                   1.0E-08


 ATOMIC KIND INFORMATION

  1. Atomic kind: Be                                    Number of atoms:       6

     Orbital Basis Set                                        DZVP-MOLOPT-SR-GTH

       Number of orbital shell sets:                                           1
       Number of orbital shells:                                               4
       Number of primitive Cartesian functions:                                6
       Number of Cartesian basis functions:                                    6
       Number of spherical basis functions:                                    6
       Norm type:                                                              2

       Normalised Cartesian orbitals:

                        Set   Shell   Orbital            Exponent    Coefficient

                          1       1    2s               14.927410      -0.745287
                                                         6.934612      -0.873847
                                                         2.222208      -0.491692
                                                         0.732914      -0.069615
                                                         0.225007      -0.036350
                                                         0.074144      -0.023756

                          1       2    3s               14.927410       0.413676
                                                         6.934612       0.508063
                                                         2.222208       0.391226
                                                         0.732914       0.084621
                                                         0.225007      -0.106584
                                                         0.074144      -0.064369

                          1       3    4s               14.927410      -0.072068
                                                         6.934612      -0.190798
                                                         2.222208      -0.644269
                                                         0.732914      -0.054458
                                                         0.225007       0.451087
                                                         0.074144      -0.147036

                          1       4    3px              14.927410      -0.452528
                                                         6.934612      -0.191351
                                                         2.222208      -0.210491
                                                         0.732914      -0.263506
                                                         0.225007      -0.117213
                                                         0.074144      -0.018516
                          1       4    3py              14.927410      -0.452528
                                                         6.934612      -0.191351
                                                         2.222208      -0.210491
                                                         0.732914      -0.263506
                                                         0.225007      -0.117213
                                                         0.074144      -0.018516
                          1       4    3pz              14.927410      -0.452528
                                                         6.934612      -0.191351
                                                         2.222208      -0.210491
                                                         0.732914      -0.263506
                                                         0.225007      -0.117213
                                                         0.074144      -0.018516

       Atomic covalent radius [Angstrom]:                                  0.900

       Atomic van der Waals radius [Angstrom]:                             1.530

     GTH Potential information for                                    GTH-PBE-q4

       Description:                       Goedecker-Teter-Hutter pseudopotential
                                           Goedecker et al., PRB 54, 1703 (1996)
                                          Hartwigsen et al., PRB 58, 3641 (1998)
                                                      Krack, TCA 114, 145 (2005)

       Gaussian exponent of the core charge distribution:               4.733728
       Electronic configuration (s p d ...):                                   4

       Parameters of the local part of the GTH pseudopotential:

                          rloc        C1          C2          C3          C4
                        0.325000  -24.067467   17.279022   -3.339106    0.165549

  2. Atomic kind: B                                     Number of atoms:       3

     Orbital Basis Set                                        DZVP-MOLOPT-SR-GTH

       Number of orbital shell sets:                                           1
       Number of orbital shells:                                               5
       Number of primitive Cartesian functions:                                4
       Number of Cartesian basis functions:                                   14
       Number of spherical basis functions:                                   13
       Norm type:                                                              2

       Normalised Cartesian orbitals:

                        Set   Shell   Orbital            Exponent    Coefficient

                          1       1    2s                3.053444       0.252402
                                                         0.915484       0.050494
                                                         0.329920      -0.219689
                                                         0.101655      -0.057697

                          1       2    3s                3.053444      -0.889751
                                                         0.915484      -0.125118
                                                         0.329920       0.537314
                                                         0.101655      -0.211019

                          1       3    3px               3.053444      -0.570049
                                                         0.915484      -0.388730
                                                         0.329920      -0.182602
                                                         0.101655      -0.024010
                          1       3    3py               3.053444      -0.570049
                                                         0.915484      -0.388730
                                                         0.329920      -0.182602
                                                         0.101655      -0.024010
                          1       3    3pz               3.053444      -0.570049
                                                         0.915484      -0.388730
                                                         0.329920      -0.182602
                                                         0.101655      -0.024010

                          1       4    4px               3.053444      -0.595374
                                                         0.915484      -0.502823
                                                         0.329920      -0.128778
                                                         0.101655       0.089873
                          1       4    4py               3.053444      -0.595374
                                                         0.915484      -0.502823
                                                         0.329920      -0.128778
                                                         0.101655       0.089873
                          1       4    4pz               3.053444      -0.595374
                                                         0.915484      -0.502823
                                                         0.329920      -0.128778
                                                         0.101655       0.089873

                          1       5    4dx2              3.053444      -0.371712
                                                         0.915484      -0.428539
                                                         0.329920      -0.123001
                                                         0.101655      -0.011638
                          1       5    4dxy              3.053444      -0.643825
                                                         0.915484      -0.742250
                                                         0.329920      -0.213044
                                                         0.101655      -0.020158
                          1       5    4dxz              3.053444      -0.643825
                                                         0.915484      -0.742250
                                                         0.329920      -0.213044
                                                         0.101655      -0.020158
                          1       5    4dy2              3.053444      -0.371712
                                                         0.915484      -0.428539
                                                         0.329920      -0.123001
                                                         0.101655      -0.011638
                          1       5    4dyz              3.053444      -0.643825
                                                         0.915484      -0.742250
                                                         0.329920      -0.213044
                                                         0.101655      -0.020158
                          1       5    4dz2              3.053444      -0.371712
                                                         0.915484      -0.428539
                                                         0.329920      -0.123001
                                                         0.101655      -0.011638

       Atomic covalent radius [Angstrom]:                                  0.820

       Atomic van der Waals radius [Angstrom]:                             1.920

     GTH Potential information for                                    GTH-PBE-q3

       Description:                       Goedecker-Teter-Hutter pseudopotential
                                           Goedecker et al., PRB 54, 1703 (1996)
                                          Hartwigsen et al., PRB 58, 3641 (1998)
                                                      Krack, TCA 114, 145 (2005)

       Gaussian exponent of the core charge distribution:               2.848129
       Electronic configuration (s p d ...):                               2   1

       Parameters of the local part of the GTH pseudopotential:

                          rloc        C1          C2          C3          C4
                        0.418991   -5.859462    0.903756

       Parameters of the non-local part of the GTH pseudopotential:

                   l      r(l)      h(i,j,l)

                   0    0.371320    6.297280
                   1    0.364563

  3. Atomic kind: O                                     Number of atoms:       9

     Orbital Basis Set                                        DZVP-MOLOPT-SR-GTH

       Number of orbital shell sets:                                           1
       Number of orbital shells:                                               5
       Number of primitive Cartesian functions:                                5
       Number of Cartesian basis functions:                                   14
       Number of spherical basis functions:                                   13
       Norm type:                                                              2

       Normalised Cartesian orbitals:

                        Set   Shell   Orbital            Exponent    Coefficient

                          1       1    2s               10.389228       0.396646
                                                         3.849621       0.208811
                                                         1.388401      -0.301641
                                                         0.496955      -0.274061
                                                         0.162492      -0.033677

                          1       2    3s               10.389228       0.303673
                                                         3.849621       0.240943
                                                         1.388401      -0.313066
                                                         0.496955      -0.043055
                                                         0.162492       0.213991

                          1       3    3px              10.389228      -1.530415
                                                         3.849621      -1.371928
                                                         1.388401      -0.761951
                                                         0.496955      -0.253695
                                                         0.162492      -0.035541
                          1       3    3py              10.389228      -1.530415
                                                         3.849621      -1.371928
                                                         1.388401      -0.761951
                                                         0.496955      -0.253695
                                                         0.162492      -0.035541
                          1       3    3pz              10.389228      -1.530415
                                                         3.849621      -1.371928
                                                         1.388401      -0.761951
                                                         0.496955      -0.253695
                                                         0.162492      -0.035541

                          1       4    4px              10.389228      -0.565392
                                                         3.849621      -0.038231
                                                         1.388401      -0.382373
                                                         0.496955       0.179070
                                                         0.162492       0.122714
                          1       4    4py              10.389228      -0.565392
                                                         3.849621      -0.038231
                                                         1.388401      -0.382373
                                                         0.496955       0.179070
                                                         0.162492       0.122714
                          1       4    4pz              10.389228      -0.565392
                                                         3.849621      -0.038231
                                                         1.388401      -0.382373
                                                         0.496955       0.179070
                                                         0.162492       0.122714

                          1       5    4dx2             10.389228       1.867377
                                                         3.849621       0.670994
                                                         1.388401       1.353441
                                                         0.496955       0.273538
                                                         0.162492       0.006620
                          1       5    4dxy             10.389228       3.234392
                                                         3.849621       1.162195
                                                         1.388401       2.344229
                                                         0.496955       0.473781
                                                         0.162492       0.011466
                          1       5    4dxz             10.389228       3.234392
                                                         3.849621       1.162195
                                                         1.388401       2.344229
                                                         0.496955       0.473781
                                                         0.162492       0.011466
                          1       5    4dy2             10.389228       1.867377
                                                         3.849621       0.670994
                                                         1.388401       1.353441
                                                         0.496955       0.273538
                                                         0.162492       0.006620
                          1       5    4dyz             10.389228       3.234392
                                                         3.849621       1.162195
                                                         1.388401       2.344229
                                                         0.496955       0.473781
                                                         0.162492       0.011466
                          1       5    4dz2             10.389228       1.867377
                                                         3.849621       0.670994
                                                         1.388401       1.353441
                                                         0.496955       0.273538
                                                         0.162492       0.006620

       Atomic covalent radius [Angstrom]:                                  0.730

       Atomic van der Waals radius [Angstrom]:                             1.520

     GTH Potential information for                                    GTH-PBE-q6

       Description:                       Goedecker-Teter-Hutter pseudopotential
                                           Goedecker et al., PRB 54, 1703 (1996)
                                          Hartwigsen et al., PRB 58, 3641 (1998)
                                                      Krack, TCA 114, 145 (2005)

       Gaussian exponent of the core charge distribution:               8.360253
       Electronic configuration (s p d ...):                               2   4

       Parameters of the local part of the GTH pseudopotential:

                          rloc        C1          C2          C3          C4
                        0.244554  -16.667215    2.487311

       Parameters of the non-local part of the GTH pseudopotential:

                   l      r(l)      h(i,j,l)

                   0    0.220956   18.337458
                   1    0.211332

  4. Atomic kind: F                                     Number of atoms:       3

     Orbital Basis Set                                        DZVP-MOLOPT-SR-GTH

       Number of orbital shell sets:                                           1
       Number of orbital shells:                                               5
       Number of primitive Cartesian functions:                                5
       Number of Cartesian basis functions:                                   14
       Number of spherical basis functions:                                   13
       Norm type:                                                              2

       Normalised Cartesian orbitals:

                        Set   Shell   Orbital            Exponent    Coefficient

                          1       1    2s               13.701521       0.466640
                                                         5.098269       0.275181
                                                         1.837941      -0.385817
                                                         0.631759      -0.323188
                                                         0.202027      -0.041057

                          1       2    3s               13.701521       0.812914
                                                         5.098269       0.409868
                                                         1.837941      -0.484144
                                                         0.631759      -0.510807
                                                         0.202027       0.323394

                          1       3    3px              13.701521      -2.132362
                                                         5.098269      -1.951997
                                                         1.837941      -1.094976
                                                         0.631759      -0.344511
                                                         0.202027      -0.046836
                          1       3    3py              13.701521      -2.132362
                                                         5.098269      -1.951997
                                                         1.837941      -1.094976
                                                         0.631759      -0.344511
                                                         0.202027      -0.046836
                          1       3    3pz              13.701521      -2.132362
                                                         5.098269      -1.951997
                                                         1.837941      -1.094976
                                                         0.631759      -0.344511
                                                         0.202027      -0.046836

                          1       4    4px              13.701521      -2.306567
                                                         5.098269      -1.843421
                                                         1.837941      -1.245905
                                                         0.631759      -0.318382
                                                         0.202027       0.198065
                          1       4    4py              13.701521      -2.306567
                                                         5.098269      -1.843421
                                                         1.837941      -1.245905
                                                         0.631759      -0.318382
                                                         0.202027       0.198065
                          1       4    4pz              13.701521      -2.306567
                                                         5.098269      -1.843421
                                                         1.837941      -1.245905
                                                         0.631759      -0.318382
                                                         0.202027       0.198065

                          1       5    4dx2             13.701521       1.831894
                                                         5.098269       1.226066
                                                         1.837941       1.533195
                                                         0.631759       0.583867
                                                         0.202027      -0.008805
                          1       5    4dxy             13.701521       3.172934
                                                         5.098269       2.123609
                                                         1.837941       2.655572
                                                         0.631759       1.011287
                                                         0.202027      -0.015251
                          1       5    4dxz             13.701521       3.172934
                                                         5.098269       2.123609
                                                         1.837941       2.655572
                                                         0.631759       1.011287
                                                         0.202027      -0.015251
                          1       5    4dy2             13.701521       1.831894
                                                         5.098269       1.226066
                                                         1.837941       1.533195
                                                         0.631759       0.583867
                                                         0.202027      -0.008805
                          1       5    4dyz             13.701521       3.172934
                                                         5.098269       2.123609
                                                         1.837941       2.655572
                                                         0.631759       1.011287
                                                         0.202027      -0.015251
                          1       5    4dz2             13.701521       1.831894
                                                         5.098269       1.226066
                                                         1.837941       1.533195
                                                         0.631759       0.583867
                                                         0.202027      -0.008805

       Atomic covalent radius [Angstrom]:                                  0.720

       Atomic van der Waals radius [Angstrom]:                             1.470

     GTH Potential information for                                    GTH-PBE-q7

       Description:                       Goedecker-Teter-Hutter pseudopotential
                                           Goedecker et al., PRB 54, 1703 (1996)
                                          Hartwigsen et al., PRB 58, 3641 (1998)
                                                      Krack, TCA 114, 145 (2005)

       Gaussian exponent of the core charge distribution:              10.823746
       Electronic configuration (s p d ...):                               2   5

       Parameters of the local part of the GTH pseudopotential:

                          rloc        C1          C2          C3          C4
                        0.214930  -21.573028    3.199776

       Parameters of the non-local part of the GTH pseudopotential:

                   l      r(l)      h(i,j,l)

                   0    0.194684   23.743540
                   1    0.186156

  5. Atomic kind: Cl                                    Number of atoms:       3

     Orbital Basis Set                                        DZVP-MOLOPT-SR-GTH

       Number of orbital shell sets:                                           1
       Number of orbital shells:                                               5
       Number of primitive Cartesian functions:                                4
       Number of Cartesian basis functions:                                   14
       Number of spherical basis functions:                                   13
       Norm type:                                                              2

       Normalised Cartesian orbitals:

                        Set   Shell   Orbital            Exponent    Coefficient

                          1       1    2s                2.379078       0.403013
                                                         1.470718       0.018727
                                                         0.461213      -0.342539
                                                         0.150015      -0.058490

                          1       2    3s                2.379078       0.556232
                                                         1.470718       0.430620
                                                         0.461213      -0.745502
                                                         0.150015       0.311453

                          1       3    3px               2.379078       0.636316
                                                         1.470718      -0.580855
                                                         0.461213      -0.325785
                                                         0.150015      -0.051764
                          1       3    3py               2.379078       0.636316
                                                         1.470718      -0.580855
                                                         0.461213      -0.325785
                                                         0.150015      -0.051764
                          1       3    3pz               2.379078       0.636316
                                                         1.470718      -0.580855
                                                         0.461213      -0.325785
                                                         0.150015      -0.051764

                          1       4    4px               2.379078       0.838044
                                                         1.470718      -0.610657
                                                         0.461213      -0.295677
                                                         0.150015       0.171492
                          1       4    4py               2.379078       0.838044
                                                         1.470718      -0.610657
                                                         0.461213      -0.295677
                                                         0.150015       0.171492
                          1       4    4pz               2.379078       0.838044
                                                         1.470718      -0.610657
                                                         0.461213      -0.295677
                                                         0.150015       0.171492

                          1       5    4dx2              2.379078       0.509952
                                                         1.470718       0.891639
                                                         0.461213       0.295732
                                                         0.150015       0.008371
                          1       5    4dxy              2.379078       0.883263
                                                         1.470718       1.544364
                                                         0.461213       0.512223
                                                         0.150015       0.014498
                          1       5    4dxz              2.379078       0.883263
                                                         1.470718       1.544364
                                                         0.461213       0.512223
                                                         0.150015       0.014498
                          1       5    4dy2              2.379078       0.509952
                                                         1.470718       0.891639
                                                         0.461213       0.295732
                                                         0.150015       0.008371
                          1       5    4dyz              2.379078       0.883263
                                                         1.470718       1.544364
                                                         0.461213       0.512223
                                                         0.150015       0.014498
                          1       5    4dz2              2.379078       0.509952
                                                         1.470718       0.891639
                                                         0.461213       0.295732
                                                         0.150015       0.008371

       Atomic covalent radius [Angstrom]:                                  0.990

       Atomic van der Waals radius [Angstrom]:                             1.750

     GTH Potential information for                                    GTH-PBE-q7

       Description:                       Goedecker-Teter-Hutter pseudopotential
                                           Goedecker et al., PRB 54, 1703 (1996)
                                          Hartwigsen et al., PRB 58, 3641 (1998)
                                                      Krack, TCA 114, 145 (2005)

       Gaussian exponent of the core charge distribution:               2.974420
       Electronic configuration (s p d ...):                               2   5

       Parameters of the local part of the GTH pseudopotential:

                          rloc        C1          C2          C3          C4
                        0.410000   -6.392082

       Parameters of the non-local part of the GTH pseudopotential:

                   l      r(l)      h(i,j,l)

                   0    0.339539   15.218990   -4.934523
                                   -4.934523    6.370442
                   1    0.378474    4.338775

  6. Atomic kind: H                                     Number of atoms:      12

     Orbital Basis Set                                        DZVP-MOLOPT-SR-GTH

       Number of orbital shell sets:                                           1
       Number of orbital shells:                                               3
       Number of primitive Cartesian functions:                                5
       Number of Cartesian basis functions:                                    5
       Number of spherical basis functions:                                    5
       Norm type:                                                              2

       Normalised Cartesian orbitals:

                        Set   Shell   Orbital            Exponent    Coefficient

                          1       1    2s               10.068468      -0.133023
                                                         2.680223      -0.177618
                                                         0.791502      -0.258419
                                                         0.239116      -0.107525
                                                         0.082193      -0.014019

                          1       2    3s               10.068468       0.344673
                                                         2.680223       1.819821
                                                         0.791502      -0.999069
                                                         0.239116       0.017430
                                                         0.082193       0.082660

                          1       3    3px              10.068468       0.155326
                                                         2.680223       0.367157
                                                         0.791502       0.311480
                                                         0.239116       0.080105
                                                         0.082193       0.033440
                          1       3    3py              10.068468       0.155326
                                                         2.680223       0.367157
                                                         0.791502       0.311480
                                                         0.239116       0.080105
                                                         0.082193       0.033440
                          1       3    3pz              10.068468       0.155326
                                                         2.680223       0.367157
                                                         0.791502       0.311480
                                                         0.239116       0.080105
                                                         0.082193       0.033440

       Atomic covalent radius [Angstrom]:                                  0.320

       Atomic van der Waals radius [Angstrom]:                             1.090

     GTH Potential information for                                    GTH-PBE-q1

       Description:                       Goedecker-Teter-Hutter pseudopotential
                                           Goedecker et al., PRB 54, 1703 (1996)
                                          Hartwigsen et al., PRB 58, 3641 (1998)
                                                      Krack, TCA 114, 145 (2005)

       Gaussian exponent of the core charge distribution:              12.500000
       Electronic configuration (s p d ...):                                   1

       Parameters of the local part of the GTH pseudopotential:

                          rloc        C1          C2          C3          C4
                        0.200000   -4.178900    0.724463

  7. Atomic kind: N                                     Number of atoms:       3

     Orbital Basis Set                                        DZVP-MOLOPT-SR-GTH

       Number of orbital shell sets:                                           1
       Number of orbital shells:                                               5
       Number of primitive Cartesian functions:                                5
       Number of Cartesian basis functions:                                   14
       Number of spherical basis functions:                                   13
       Norm type:                                                              2

       Normalised Cartesian orbitals:

                        Set   Shell   Orbital            Exponent    Coefficient

                          1       1    2s                7.341988       0.360561
                                                         2.542637       0.139177
                                                         0.888575      -0.289383
                                                         0.333802      -0.182244
                                                         0.112012      -0.019197

                          1       2    3s                7.341988       0.282000
                                                         2.542637       0.177875
                                                         0.888575      -0.278381
                                                         0.333802       0.008577
                                                         0.112012       0.154176

                          1       3    3px               7.341988      -1.188719
                                                         2.542637      -0.973969
                                                         0.888575      -0.501079
                                                         0.333802      -0.144894
                                                         0.112012      -0.013986
                          1       3    3py               7.341988      -1.188719
                                                         2.542637      -0.973969
                                                         0.888575      -0.501079
                                                         0.333802      -0.144894
                                                         0.112012      -0.013986
                          1       3    3pz               7.341988      -1.188719
                                                         2.542637      -0.973969
                                                         0.888575      -0.501079
                                                         0.333802      -0.144894
                                                         0.112012      -0.013986

                          1       4    4px               7.341988      -0.094798
                                                         2.542637       0.050069
                                                         0.888575      -0.114797
                                                         0.333802       0.144793
                                                         0.112012       0.066710
                          1       4    4py               7.341988      -0.094798
                                                         2.542637       0.050069
                                                         0.888575      -0.114797
                                                         0.333802       0.144793
                                                         0.112012       0.066710
                          1       4    4pz               7.341988      -0.094798
                                                         2.542637       0.050069
                                                         0.888575      -0.114797
                                                         0.333802       0.144793
                                                         0.112012       0.066710

                          1       5    4dx2              7.341988       1.354688
                                                         2.542637       0.690378
                                                         0.888575       0.855359
                                                         0.333802       0.091746
                                                         0.112012       0.001253
                          1       5    4dxy              7.341988       2.346389
                                                         2.542637       1.195770
                                                         0.888575       1.481524
                                                         0.333802       0.158910
                                                         0.112012       0.002169
                          1       5    4dxz              7.341988       2.346389
                                                         2.542637       1.195770
                                                         0.888575       1.481524
                                                         0.333802       0.158910
                                                         0.112012       0.002169
                          1       5    4dy2              7.341988       1.354688
                                                         2.542637       0.690378
                                                         0.888575       0.855359
                                                         0.333802       0.091746
                                                         0.112012       0.001253
                          1       5    4dyz              7.341988       2.346389
                                                         2.542637       1.195770
                                                         0.888575       1.481524
                                                         0.333802       0.158910
                                                         0.112012       0.002169
                          1       5    4dz2              7.341988       1.354688
                                                         2.542637       0.690378
                                                         0.888575       0.855359
                                                         0.333802       0.091746
                                                         0.112012       0.001253

       Atomic covalent radius [Angstrom]:                                  0.750

       Atomic van der Waals radius [Angstrom]:                             1.550

     GTH Potential information for                                    GTH-PBE-q5

       Description:                       Goedecker-Teter-Hutter pseudopotential
                                           Goedecker et al., PRB 54, 1703 (1996)
                                          Hartwigsen et al., PRB 58, 3641 (1998)
                                                      Krack, TCA 114, 145 (2005)

       Gaussian exponent of the core charge distribution:               6.208322
       Electronic configuration (s p d ...):                               2   3

       Parameters of the local part of the GTH pseudopotential:

                          rloc        C1          C2          C3          C4
                        0.283791  -12.415226    1.868096

       Parameters of the non-local part of the GTH pseudopotential:

                   l      r(l)      h(i,j,l)

                   0    0.255405   13.630263
                   1    0.245495


 MOLECULE KIND INFORMATION


 All atoms are their own molecule, skipping detailed information


 TOTAL NUMBERS AND MAXIMUM NUMBERS

  Total number of            - Atomic kinds:                                   7
                             - Atoms:                                         39
                             - Shell sets:                                    39
                             - Shells:                                       165
                             - Primitive Cartesian functions:                195
                             - Cartesian basis functions:                    390
                             - Spherical basis functions:                    369

  Maximum angular momentum of- Orbital basis functions:                        2
                             - Local part of the GTH pseudopotential:          6
                             - Non-local part of the GTH pseudopotential:      2


 MODULE QUICKSTEP: ATOMIC COORDINATES IN ANGSTROM

   Atom Kind Element         X             Y             Z       Z(eff)     Mass
      1    1 Be    4      0.000000      0.000000      4.471313   4.0000   9.0122
      2    1 Be    4      0.000000      0.000000     18.450269   4.0000   9.0122
      3    1 Be    4      2.239984      1.293255     12.111841   4.0000   9.0122
      4    1 Be    4      2.239984      1.293255      3.169214   4.0000   9.0122
      5    1 Be    4     -0.000000      2.586511     19.752368   4.0000   9.0122
      6    1 Be    4     -0.000000      2.586511     10.809741   4.0000   9.0122
      7    2 B     5      0.000000      0.000000     11.460792   3.0000  10.8110
      8    2 B     5      2.239984      1.293255     19.101319   3.0000  10.8110
      9    2 B     5     -0.000000      2.586511      3.820264   3.0000  10.8110
     10    3 O     8      1.386550      0.000000     11.460792   6.0000  15.9994
     11    3 O     8     -0.693275      1.200788     11.460792   6.0000  15.9994
     12    3 O     8      1.546709      2.678979     11.460792   6.0000  15.9994
     13    3 O     8      3.626534      1.293255     19.101319   6.0000  15.9994
     14    3 O     8      1.546709      2.494043     19.101319   6.0000  15.9994
     15    3 O     8      1.546709      0.092468     19.101319   6.0000  15.9994
     16    3 O     8      1.386550      2.586511      3.820264   6.0000  15.9994
     17    3 O     8     -0.693275      3.787298      3.820264   6.0000  15.9994
     18    3 O     8     -0.693275      1.385723      3.820264   6.0000  15.9994
     19    4 F     9      0.000000      0.000000      6.228252   7.0000  18.9984
     20    4 F     9      2.239984      1.293255     13.868780   7.0000  18.9984
     21    4 F     9     -0.000000      2.586511     21.509307   7.0000  18.9984
     22    5 Cl   17      0.000000      0.000000     16.693331   7.0000  35.4530
     23    5 Cl   17      2.239984      1.293255      1.412275   7.0000  35.4530
     24    5 Cl   17     -0.000000      2.586511      9.052803   7.0000  35.4530
     25    6 H     1      0.641532      2.201379     14.798173   1.0000   1.0079
     26    6 H     1     -0.654300      2.223494     14.798173   1.0000   1.0079
     27    6 H     1      0.012767      3.334659     14.798173   1.0000   1.0079
     28    6 H     1      2.881516      0.908124      7.157645   1.0000   1.0079
     29    6 H     1      1.585685      0.930238      7.157645   1.0000   1.0079
     30    6 H     1      2.252752      2.041404      7.157646   1.0000   1.0079
     31    6 H     1      2.239984      1.293255      8.694156   1.0000   1.0079
     32    6 H     1     -0.000000      2.586511     16.334684   1.0000   1.0079
     33    6 H     1      0.000000      0.000000      1.053629   1.0000   1.0079
     34    6 H     1     -1.598452      3.494635     22.438702   1.0000   1.0079
     35    6 H     1      1.585685      3.516749     22.438702   1.0000   1.0079
     36    6 H     1      0.012768      0.748148     22.438702   1.0000   1.0079
     37    7 N     7      2.239984      1.293255      7.640528   5.0000  14.0067
     38    7 N     7     -0.000000      2.586511     15.281056   5.0000  14.0067
     39    7 N     7      0.000000      0.000000      0.000000   5.0000  14.0067



 SCF PARAMETERS         Density guess:                                    ATOMIC
                        --------------------------------------------------------
                        max_scf:                                             250
                        max_scf_history:                                       0
                        max_diis:                                              4
                        --------------------------------------------------------
                        eps_scf:                                        1.00E-06
                        eps_scf_history:                                0.00E+00
                        eps_diis:                                       1.00E-01
                        eps_eigval:                                     1.00E-05
                        --------------------------------------------------------
                        level_shift [a.u.]:                             0.000000
                        --------------------------------------------------------
                        Mixing method:                            BROYDEN_MIXING
                                                charge density mixing in g-space
                        --------------------------------------------------------
                        No outer SCF

 PW_GRID| Information for grid number                                          1
 PW_GRID| Grid distributed over                                    60 processors
 PW_GRID| Real space group dimensions                                    60    1
 PW_GRID| the grid is blocked:                                                NO
 PW_GRID| Cutoff [a.u.]                                                    300.0
 PW_GRID| spherical cutoff:                                                   NO
 PW_GRID|   Bounds   1            -36      35                Points:          72
 PW_GRID|   Bounds   2            -36      35                Points:          72
 PW_GRID|   Bounds   3           -180     179                Points:         360
 PW_GRID| Volume element (a.u.^3)  0.1441E-02     Volume (a.u.^3)      2688.5721
 PW_GRID| Grid span                                                    FULLSPACE
 PW_GRID|   Distribution                         Average         Max         Min
 PW_GRID|   G-Vectors                            31104.0       31104       31104
 PW_GRID|   G-Rays                                 432.0         432         432
 PW_GRID|   Real Space Points                    31104.0       51840       25920

 PW_GRID| Information for grid number                                          2
 PW_GRID| Number of the reference grid                                         1
 PW_GRID| Grid distributed over                                    60 processors
 PW_GRID| Real space group dimensions                                     6   10
 PW_GRID| the grid is blocked:                                                NO
 PW_GRID| Cutoff [a.u.]                                                    100.0
 PW_GRID| spherical cutoff:                                                   NO
 PW_GRID|   Bounds   1            -20      19                Points:          40
 PW_GRID|   Bounds   2            -20      19                Points:          40
 PW_GRID|   Bounds   3           -100      99                Points:         200
 PW_GRID| Volume element (a.u.^3)  0.8402E-02     Volume (a.u.^3)      2688.5721
 PW_GRID| Grid span                                                    FULLSPACE
 PW_GRID|   Distribution                         Average         Max         Min
 PW_GRID|   G-Vectors                             5333.3        6160        3800
 PW_GRID|   G-Rays                                 133.3         154          95
 PW_GRID|   Real Space Points                     5333.3        5600        4800

 PW_GRID| Information for grid number                                          3
 PW_GRID| Number of the reference grid                                         1
 PW_GRID| Grid distributed over                                    60 processors
 PW_GRID| Real space group dimensions                                     6   10
 PW_GRID| the grid is blocked:                                                NO
 PW_GRID| Cutoff [a.u.]                                                     33.3
 PW_GRID| spherical cutoff:                                                   NO
 PW_GRID|   Bounds   1            -12      11                Points:          24
 PW_GRID|   Bounds   2            -12      11                Points:          24
 PW_GRID|   Bounds   3            -60      59                Points:         120
 PW_GRID| Volume element (a.u.^3)  0.3890E-01     Volume (a.u.^3)      2688.5721
 PW_GRID| Grid span                                                    FULLSPACE
 PW_GRID|   Distribution                         Average         Max         Min
 PW_GRID|   G-Vectors                             1152.0        1320         960
 PW_GRID|   G-Rays                                  48.0          55          40
 PW_GRID|   Real Space Points                     1152.0        1440         960

 PW_GRID| Information for grid number                                          4
 PW_GRID| Number of the reference grid                                         1
 PW_GRID| Grid distributed over                                    60 processors
 PW_GRID| Real space group dimensions                                     6   10
 PW_GRID| the grid is blocked:                                                NO
 PW_GRID| Cutoff [a.u.]                                                     11.1
 PW_GRID| spherical cutoff:                                                   NO
 PW_GRID|   Bounds   1             -7       7                Points:          15
 PW_GRID|   Bounds   2             -7       7                Points:          15
 PW_GRID|   Bounds   3            -36      35                Points:          72
 PW_GRID| Volume element (a.u.^3)  0.1660         Volume (a.u.^3)      2688.5721
 PW_GRID| Grid span                                                    FULLSPACE
 PW_GRID|   Distribution                         Average         Max         Min
 PW_GRID|   G-Vectors                              270.0         360         195
 PW_GRID|   G-Rays                                  18.0          24          13
 PW_GRID|   Real Space Points                      270.0         432         144

 PW_GRID| Information for grid number                                          5
 PW_GRID| Number of the reference grid                                         1
 PW_GRID| Grid distributed over                                    60 processors
 PW_GRID| Real space group dimensions                                     6   10
 PW_GRID| the grid is blocked:                                                NO
 PW_GRID| Cutoff [a.u.]                                                      3.7
 PW_GRID| spherical cutoff:                                                   NO
 PW_GRID|   Bounds   1             -4       3                Points:           8
 PW_GRID|   Bounds   2             -4       3                Points:           8
 PW_GRID|   Bounds   3            -20      19                Points:          40
 PW_GRID| Volume element (a.u.^3)   1.050         Volume (a.u.^3)      2688.5721
 PW_GRID| Grid span                                                    FULLSPACE
 PW_GRID|   Distribution                         Average         Max         Min
 PW_GRID|   G-Vectors                               42.7          64          16
 PW_GRID|   G-Rays                                   5.3           8           2
 PW_GRID|   Real Space Points                       42.7          80           0

 POISSON| Solver                                                        PERIODIC
 POISSON| Periodicity                                                        XYZ

 RS_GRID| Information for grid number                                          1
 RS_GRID|   Bounds   1            -36      35                Points:          72
 RS_GRID|   Bounds   2            -36      35                Points:          72
 RS_GRID|   Bounds   3           -180     179                Points:         360
 RS_GRID| Real space distribution over                                 60 groups
 RS_GRID| Real space distribution along direction                              3
 RS_GRID| Border size                                                         46
 RS_GRID|   Distribution                         Average         Max         Min
 RS_GRID|   Planes                                  98.0          98          98

 RS_GRID| Information for grid number                                          2
 RS_GRID|   Bounds   1            -20      19                Points:          40
 RS_GRID|   Bounds   2            -20      19                Points:          40
 RS_GRID|   Bounds   3           -100      99                Points:         200
 RS_GRID| Real space distribution over                                 60 groups
 RS_GRID| Real space distribution along direction                              3
 RS_GRID| Border size                                                         45
 RS_GRID|   Distribution                         Average         Max         Min
 RS_GRID|   Planes                                  93.3          94          93

[...]
      28     H        6          0.865191                              0.134809
      29     H        6          0.865190                              0.134810
      30     H        6          0.865192                              0.134808
      31     H        6          0.853882                              0.146118
      32     H        6          0.853884                              0.146116
      33     H        6          0.853882                              0.146118
      34     H        6          0.865183                              0.134817
      35     H        6          0.865187                              0.134813
      36     H        6          0.865189                              0.134811
      37     N        7          4.798220                              0.201780
      38     N        7          4.798225                              0.201775
      39     N        7          4.798225                              0.201775
 # Total charge                            156.000000                  0.000000

 !-----------------------------------------------------------------------------!

 !-----------------------------------------------------------------------------!
                           Hirshfeld Charges

  #Atom  Element  Kind  Ref Charge     Population                    Net charge
      1       Be     1       4.000          3.802                         0.198
      2       Be     1       4.000          3.794                         0.206
      3       Be     1       4.000          3.802                         0.198
      4       Be     1       4.000          3.794                         0.206
      5       Be     1       4.000          3.802                         0.198
      6       Be     1       4.000          3.794                         0.206
      7       B      2       3.000          2.313                         0.687
      8       B      2       3.000          2.313                         0.687
      9       B      2       3.000          2.313                         0.687
     10       O      3       6.000          6.292                        -0.292
     11       O      3       6.000          6.292                        -0.292
     12       O      3       6.000          6.292                        -0.292
     13       O      3       6.000          6.292                        -0.292
     14       O      3       6.000          6.292                        -0.292
     15       O      3       6.000          6.292                        -0.292
     16       O      3       6.000          6.292                        -0.292
     17       O      3       6.000          6.292                        -0.292
     18       O      3       6.000          6.292                        -0.292
     19       F      4       7.000          7.658                        -0.658
     20       F      4       7.000          7.658                        -0.658
     21       F      4       7.000          7.658                        -0.658
     22       Cl     5       7.000          7.669                        -0.669
     23       Cl     5       7.000          7.669                        -0.669
     24       Cl     5       7.000          7.669                        -0.669
     25       H      6       1.000          0.446                         0.554
     26       H      6       1.000          0.446                         0.554
     27       H      6       1.000          0.446                         0.554
     28       H      6       1.000          0.446                         0.554
     29       H      6       1.000          0.446                         0.554
     30       H      6       1.000          0.446                         0.554
     31       H      6       1.000          0.456                         0.544
     32       H      6       1.000          0.456                         0.544
     33       H      6       1.000          0.456                         0.544
     34       H      6       1.000          0.446                         0.554
     35       H      6       1.000          0.446                         0.554
     36       H      6       1.000          0.446                         0.554
     37       N      7       5.000          6.093                        -1.093
     38       N      7       5.000          6.093                        -1.093
     39       N      7       5.000          6.093                        -1.093

  Total Charge                                                           -0.000
 !-----------------------------------------------------------------------------!

 ENERGY| Total FORCE_EVAL ( QS ) energy [a.u.]:             -397.008238642204844

 -------------------------------------------------------------------------------
 -                                                                             -
 -                                DBCSR STATISTICS                             -
 -                                                                             -
 -------------------------------------------------------------------------------
 COUNTER                                    TOTAL       BLAS       SMM       ACC
 flops inhomo. stacks                           0       0.0%      0.0%      0.0%
 flops total                         0.000000E+00       0.0%      0.0%      0.0%
 flops max/rank                      0.000000E+00       0.0%      0.0%      0.0%
 matmuls inhomo. stacks                         0       0.0%      0.0%      0.0%
 matmuls total                                  0       0.0%      0.0%      0.0%
 number of processed stacks                     0       0.0%      0.0%      0.0%
 average stack size                                     0.0       0.0       0.0
 marketing flops                     0.000000E+00
 -------------------------------------------------------------------------------
 -                                                                             -
 -                      DBCSR MESSAGE PASSING PERFORMANCE                      -
 -                                                                             -
 -------------------------------------------------------------------------------
 ROUTINE             CALLS      AVE VOLUME [Bytes]
 MP_Bcast                1                     12.
 MP_Allreduce        74836                      8.
 MP_Alltoall       1224516                  18173.
 -------------------------------------------------------------------------------

 -------------------------------------------------------------------------------
 -                                                                             -
 -                                DBM STATISTICS                               -
 -                                                                             -
 -------------------------------------------------------------------------------
    M  x    N  x    K                                          COUNT     PERCENT
 -------------------------------------------------------------------------------

 -------------------------------------------------------------------------------
 -                                                                             -
 -                                GRID STATISTICS                              -
 -                                                                             -
 -------------------------------------------------------------------------------
 LP    KERNEL             BACKEND                              COUNT     PERCENT
 3     collocate general  CPU                                7569292      23.65%
 3     integrate general  CPU                                7330956      22.90%
 2     collocate general  CPU                                5160635      16.12%
 2     integrate general  CPU                                4695312      14.67%
 4     integrate general  CPU                                3568263      11.15%
 4     collocate general  CPU                                3205855      10.02%
 5     integrate general  CPU                                 275920       0.86%
 0     collocate general  CPU                                 102960       0.32%
 0     integrate general  CPU                                  51480       0.16%
 1     integrate general  CPU                                  49140       0.15%
 -------------------------------------------------------------------------------

 MEMORY| Estimated peak process memory [MiB]                                 910

 -------------------------------------------------------------------------------
 ----                             MULTIGRID INFO                            ----
 -------------------------------------------------------------------------------
 count for grid        1:        3727702          cutoff [a.u.]          300.00
 count for grid        2:        2355290          cutoff [a.u.]          100.00
 count for grid        3:        1657507          cutoff [a.u.]           33.33
 count for grid        4:         852581          cutoff [a.u.]           11.11
 count for grid        5:           5100          cutoff [a.u.]            3.70
 total gridlevel count  :        8598180

 -------------------------------------------------------------------------------
 -                                                                             -
 -                         MESSAGE PASSING PERFORMANCE                         -
 -                                                                             -
 -------------------------------------------------------------------------------

 ROUTINE             CALLS      AVE VOLUME [Bytes]
 MP_Group                6
 MP_Bcast           528122                   2535.
 MP_Allreduce        41265                    250.
 MP_Sync              1000
 MP_Alltoall          7170                1562130.
 MP_SendRecv         48380                   4777.
 MP_ISendRecv        43011                   5205.
 MP_Wait            518125
 MP_comm_split          23
 MP_ISend           661534                   7672.
 MP_IRecv           887800                   5921.
 -------------------------------------------------------------------------------


 -------------------------------------------------------------------------------
 -                                                                             -
 -                           R E F E R E N C E S                               -
 -                                                                             -
 -------------------------------------------------------------------------------
 
 CP2K version 2024.3, the CP2K developers group (2024).
 CP2K is freely available from https://www.cp2k.org/ .
 
 T. D. Kuehne, M. Iannuzzi, M. Del Ben, V. V. Rybkin, P. Seewald, F. Stein, T. 
 Laino, R. Z. Khaliullin, O. Schuett, F. Schiffmann, D. Golze, J. Wilhelm, S. 
 Chulkov, M. H. Bani-Hashemian, V. Weber, U. Borstnik, M. Taillefumier, A. S. 
 Jakobovits, A. Lazzaro, H. Pabst, T. Mueller, R. Schade, M. Guidon, S. 
 Andermatt, N. Holmberg, G. K. Schenter, A. Hehn, A. Bussy, F. Belleflamme, G. 
 Tabacchi, A. Gloess, M. Lass, I. Bethune, C. J. Mundy, C. Plessl, M. Watkins, 
 J. VandeVondele, M. Krack, J. Hutter.
 J. Chem. Phys. 152, 194103 (2020).
 CP2K: An electronic structure and molecular dynamics software package - 
 Quickstep: Efficient and accurate electronic structure calculations.
 https://doi.org/10.1063/5.0007045

 A. Togo, I. Tanaka.
 arXiv, 1808.01590 (2018).
 Spglib : a software library for crystal symmetry search.

 L. Goerigk, A. Hansen, C. Bauer, S. Ehrlich, A. Najibi, S. Grimme.
 Phys. Chem. Chem. Phys. 19, 32184-32215 (2017).
 A look at the density functional theory zoo with the advanced GMTKN55 database 
 for general main group thermochemistry, kinetics and noncovalent interactions.
 https://doi.org/10.1039/C7CP04913G

 O. Schuett, P. Messmer, J. Hutter, J. VandeVondele.
 Electronic Structure Calculations on Graphics Processing Units, 173-190 (2016).
 GPU-Accelerated Sparse Matrix-Matrix Multiplication for Linear Scaling Density 
 Functional Theory.
 https://doi.org/10.1002/9781118670712.ch8

 A. Heinecke, G. Henry, M. Hutchinson, H. Pabst.
 Proceedings of Intl. Supercomputing Conference, 981-991 (2016).
 LIBXSMM: Accelerating Small Matrix Multiplications by Runtime Code Generation.
 https://doi.org/10.1109/SC.2016.83

 J. Hutter, M. Iannuzzi, F. Schiffmann, J. VandeVondele.
 WIREs Comput Mol Sci. 4, 15-25 (2014).
 CP2K: atomistic simulations of condensed matter systems.
 https://doi.org/10.1002/wcms.1159

 U. Borstnik, J. VandeVondele, V. Weber, J. Hutter.
 Parallel Comput. 40, 47-58 (2014).
 Sparse matrix multiplication: The distributed block-compressed sparse row 
 library.
 https://doi.org/10.1016/j.parco.2014.03.012

 S. Grimme, S. Ehrlich, L. Goerigk.
 J. Comput. Chem. 32, 1456 (2011).
 Effect of the damping function in dispersion corrected density functional 
 theory.
 https://doi.org/10.1002/jcc.21759

 S. Grimme, J. Antony, S. Ehrlich, H. Krieg.
 J. Chem. Phys. 132, 154104 (2010).
 A consistent and accurate ab initio parametrization of density functional 
 dispersion correction (DFT-D) for the 94 elements H-Pu.
 https://doi.org/10.1063/1.3382344

 J. VandeVondele, J. Hutter.
 J. Chem. Phys. 127, 114105 (2007).
 Gaussian basis sets for accurate calculations on molecular systems in gas and 
 condensed phases.
 https://doi.org/10.1063/1.2770708

 J. VandeVondele, M. Krack, F. Mohamed, M. Parrinello, T. Chassaing, J. Hutter.
 Comput. Phys. Commun. 167, 103-128 (2005).
 QUICKSTEP: Fast and accurate density functional calculations using a mixed 
 Gaussian and plane waves approach.
 https://doi.org/10.1016/j.cpc.2004.12.014

 M. Krack.
 Theor. Chem. Acc. 114, 145-152 (2005).
 Pseudopotentials for H to Kr optimized for gradient-corrected 
 exchange-correlation functionals.
 https://doi.org/10.1007/s00214-005-0655-y

 M. Frigo, S. G. Johnson.
 Proc. IEEE 93, 216-231 (2005).
 The design and implementation of FFTW3.
 https://doi.org/10.1109/JPROC.2004.840301

 C. Hartwigsen, S. Goedecker, J. Hutter.
 Phys. Rev. B 58, 3641-3662 (1998).
 Relativistic separable dual-space Gaussian pseudopotentials from H to Rn.
 https://doi.org/10.1103/PhysRevB.58.3641

 G. Lippert, J. Hutter, M. Parrinello.
 Mol. Phys. 92, 477-487 (1997).
 A hybrid Gaussian and plane wave density functional scheme.
 https://doi.org/10.1080/002689797170220

 S. Goedecker, M. Teter, J. Hutter.
 Phys. Rev. B 54, 1703-1710 (1996).
 Separable dual-space Gaussian pseudopotentials.
 https://doi.org/10.1103/PhysRevB.54.1703

 J. P. Perdew, K. Burke, M. Ernzerhof.
 Phys. Rev. Lett. 77, 3865-3868 (1996).
 Generalized gradient approximation made simple.
 https://doi.org/10.1103/PhysRevLett.77.3865


 -------------------------------------------------------------------------------
 -                                                                             -
 -                                T I M I N G                                  -
 -                                                                             -
 -------------------------------------------------------------------------------
 SUBROUTINE                       CALLS  ASD         SELF TIME        TOTAL TIME
                                MAXIMUM       AVERAGE  MAXIMUM  AVERAGE  MAXIMUM
 CP2K                                 1  1.0    0.032    0.038  482.768  482.769
 cp_geo_opt                           1  2.0    0.004    0.004  482.245  482.246
 geoopt_bfgs                          1  3.0    0.007    0.016  482.241  482.243
 cp_eval_at                          22  4.0    0.006    0.007  481.850  481.851
 qs_energies                         22  6.0    0.016    0.021  477.330  477.334
 qs_forces                           21  5.0    0.004    0.005  475.214  475.215
 scf_env_do_scf                      22  7.0    0.001    0.009  364.668  381.217
 scf_env_do_scf_inner_loop          222  8.0    0.025    0.069  364.667  381.208
 qs_scf_new_mos_kp                  222  9.0    0.002    0.003  303.262  303.605
 do_general_diag_kp                 222 10.0    0.184    0.195  303.260  303.603
 cp_cfm_geeig                      3552 11.0    0.027    0.030  173.380  174.885
 cp_cfm_heevd                      3552 12.0  128.720  131.676  128.720  131.676
 mp_sum_d                         77217 12.6   39.150   87.621   39.150   87.621
 qs_energies_init_hamiltonians       22  7.0    0.004    0.005   86.661   86.661
 calculate_dispersion_pairpot        22  8.0   48.230   81.983   84.974   84.974
 dbcsr_complete_redistribute      91323 12.2    2.866    3.619   49.341   51.328
 mp_alltoall_i22                 208374 12.8   45.931   50.590   45.931   50.590
 kpoint_density_transform           243 10.7    0.076    0.081   49.090   49.876
 copy_fm_to_dbcsr                 31104 11.7    0.109    0.115   32.810   34.056
 copy_dbcsr_to_fm                 60219 10.9    0.303    0.313   31.360   32.720
 rebuild_ks_matrix                  243  9.7    0.001    0.001   31.216   31.293
 qs_ks_build_kohn_sham_matrix       243 10.7    0.060    0.067   31.215   31.292
 kpoint_density_matrices            243 10.7    0.027    0.030   29.691   30.442
 parallel_gemm_fm                 15573 11.7    0.008    0.011   29.674   30.425
 parallel_gemm_fm_cosma           15573 12.7   29.665   30.417   29.665   30.417
 qs_ks_update_qs_env                222  9.0    0.002    0.005   28.965   29.038
 cp_cfm_triangular_multiply       10656 12.0   26.083   28.063   26.083   28.063
 dbcsr_desymmetrize_deep         117051 11.5    1.398    1.849   22.986   25.513
 qs_rho_update_rho_low              244  9.1    0.001    0.005   25.088   25.192
 calculate_rho_elec                 244 10.1    0.031    0.048   25.087   25.191
 write_kpoints_restart              222  9.0    0.299   17.344    6.744   23.295
 sum_up_and_integrate               243 11.7    0.002    0.003   21.507   21.596
 integrate_v_rspace                 243 12.7    0.008    0.009   21.458   21.543
 cp_fm_start_copy_general         87936 11.3    1.516    2.124   19.513   20.322
 scf_post_calculation_gpw            22  7.0    0.001    0.003   17.400   17.686
 write_available_results             22  8.0    0.000    0.000   17.398   17.684
 write_mo_free_results               22  9.0    0.007    0.021   17.397   17.683
 mp_allgather_i                  175872 12.3   15.851   17.111   15.851   17.111
 mp_sum_dm                         2994  6.3   16.675   16.988   16.675   16.988
 mulliken_population_analysis        22 10.0    0.013    0.018   16.569   16.856
 grid_collocate_task_list           244 11.1   13.625   16.438   13.625   16.438
 grid_integrate_task_list           243 13.7   12.550   15.652   12.550   15.652
 density_rs2pw                      244 11.1    0.007    0.008   10.733   12.423
 fft_wrap_pw1pw2                   4845 13.9    0.031    0.037   11.784   11.932
 mp_waitany                       87454 15.2    9.687   11.555    9.687   11.555
 mp_alltoall_d11v                625630 13.4    9.316   11.462    9.316   11.462
 fft3d_ps                          4845 15.9    2.512    3.572   10.457   10.656
 cp_cfm_cholesky_decompose         3552 12.0    9.677   10.632    9.677   10.632
 transfer_rs2pw                    1264 12.0    0.013    0.015    8.422   10.284
 fft_wrap_pw1pw2_300               2897 15.2    0.408    0.461    9.534    9.662
 -------------------------------------------------------------------------------

 The number of warnings for this run is : 0
 
 -------------------------------------------------------------------------------
  **** **** ******  **  PROGRAM ENDED AT                 2024-10-20 05:30:29.963
 ***** ** ***  *** **   PROGRAM RAN ON                              fbb6991ff646
 **    ****   ******    PROGRAM RAN BY                                 <unknown>
 ***** **    ** ** **   PROGRAM PROCESS ID                                   586
  **** **  *******  **  PROGRAM STOPPED IN                                  /mnt
