     Program PWSCF v.7.2 starts on  5Oct2024 at  6:12:21 

     This program is part of the open-source Quantum ESPRESSO suite
     for quantum simulation of materials; please cite
         "P. Giannozzi et al., J. Phys.:Condens. Matter 21 395502 (2009);
         "P. Giannozzi et al., J. Phys.:Condens. Matter 29 465901 (2017);
         "P. Giannozzi et al., J. Chem. Phys. 152 154105 (2020);
          URL http://www.quantum-espresso.org", 
     in publications or presentations arising from this work. More details at
     http://www.quantum-espresso.org/quote

     Parallel version (MPI & OpenMP), running on     180 processor cores
     Number of MPI processes:                90
     Threads/MPI process:                     2

     MPI processes distributed on     1 nodes
     351057 MiB available memory on the printing compute node when the environment starts

     Reading input from tio2_slab.in

     Current dimensions of program PWSCF are:
     Max number of different atomic species (ntypx) = 10
     Max number of k-points (npk) =  40000
     Max angular momentum in pseudopotentials (lmaxx) =  4
     file Ti.pbe-spn-rrkjus_psl.1.0.0.UPF: wavefunction(s)  3S 3D renormalized

     IMPORTANT: XC functional enforced from input :
     Exchange-correlation= PBE
                           (   1   4   3   4   0   0   0)
     Any further DFT definition will be discarded
     Please, verify this is what you really want


     gamma-point specific algorithms are used
     Found identity + (  0.5000  0.5000  0.0000) symmetry
     This is a supercell, fractional translations are disabled

     R & G space division:  proc/nbgrp/npool/nimage =      90
     Subspace diagonalization in iterative solution of the eigenvalue problem:
     one sub-group per band group will be used
     ELPA distributed-memory algorithm (size of sub-group:  2*  2 procs)


     Parallelization info
     --------------------
     sticks:   dense  smooth     PW     G-vecs:    dense   smooth      PW
     Min          60      24      5                13680     3452     386
     Max          62      26      8                13758     3480     462
     Sum        5507    2207    551              1234603   312195   38933

     Using Slab Decomposition



     bravais-lattice index     =            8
     lattice parameter (alat)  =      19.3495  a.u.
     unit-cell volume          =    6538.4192 (a.u.)^3
     number of atoms/cell      =           36
     number of atomic types    =            2
     number of electrons       =       288.00
     number of Kohn-Sham states=          173
     kinetic-energy cutoff     =      50.0000  Ry
     charge density cutoff     =     500.0000  Ry
     scf convergence threshold =      1.0E-05
     mixing beta               =       0.7000
     number of iterations used =            8  local-TF  mixing
     energy convergence thresh.=      5.0E-04
     force convergence thresh. =      5.0E-03
     Exchange-correlation= PBE
                           (   1   4   3   4   0   0   0)
     nstep                     =           50


     celldm(1)=  19.349473  celldm(2)=   0.369654  celldm(3)=   2.441573
     celldm(4)=   0.000000  celldm(5)=   0.000000  celldm(6)=   0.000000

     crystal axes: (cart. coord. in units of alat)
               a(1) = (   1.000000   0.000000   0.000000 )  
               a(2) = (   0.000000   0.369654   0.000000 )  
               a(3) = (   0.000000   0.000000   2.441573 )  

     reciprocal axes: (cart. coord. in units 2 pi/alat)
               b(1) = (  1.000000  0.000000  0.000000 )  
               b(2) = (  0.000000  2.705231  0.000000 )  
               b(3) = (  0.000000  0.000000  0.409572 )  


     PseudoPot. # 1 for Ti read from file:
     /home/apparelixetsy/qe/pp/Ti.pbe-spn-rrkjus_psl.1.0.0.UPF
     MD5 check sum: e281089c08e14b8efcf92e44a67ada65
     Pseudo is Ultrasoft + core correction, Zval = 12.0
     Generated using &quot;atomic&quot; code by A. Dal Corso  v.6.2.2
     Using radial grid of 1177 points,  6 beta functions with: 
                l(1) =   0
                l(2) =   0
                l(3) =   1
                l(4) =   1
                l(5) =   2
                l(6) =   2
     Q(r) pseudized with 0 coefficients 


     PseudoPot. # 2 for O  read from file:
     /home/apparelixetsy/qe/pp/O.pbe-n-rrkjus_psl.1.0.0.UPF
     MD5 check sum: 91400c9766925bcf19f520983a725ff0
     Pseudo is Ultrasoft + core correction, Zval =  6.0
     Generated using &quot;atomic&quot; code by A. Dal Corso  v.6.3MaX
     Using radial grid of 1095 points,  4 beta functions with: 
                l(1) =   0
                l(2) =   0
                l(3) =   1
                l(4) =   1
     Q(r) pseudized with 0 coefficients 


     atomic species   valence    mass     pseudopotential
        Ti            12.00    47.86700     Ti( 1.00)
        O              6.00    15.99940     O ( 1.00)

      2 Sym. Ops. (no inversion) found



   Cartesian axes

     site n.     atom                  positions (alat units)
         1           Ti  tau(   1) = (   0.0000000   0.0000000   0.0000000  )
         2           Ti  tau(   2) = (   0.7267061   0.0000000   0.6869415  )
         3           Ti  tau(   3) = (   0.8633515   0.0000000   0.3434707  )
         4           Ti  tau(   4) = (   0.3633535   0.1848271   0.3434707  )
         5           Ti  tau(   5) = (   0.4999979   0.1848271   0.0000000  )
         6           Ti  tau(   6) = (   0.2267081   0.1848271   0.6869415  )
         7           Ti  tau(   7) = (   0.2158381   0.1848271   0.0858692  )
         8           Ti  tau(   8) = (   0.9425442   0.1848271   0.7728106  )
         9           Ti  tau(   9) = (   0.0791927   0.1848271   0.4293399  )
        10           Ti  tau(  10) = (   0.5791907   0.0000000   0.4293399  )
        11           Ti  tau(  11) = (   0.7158361   0.0000000   0.0858692  )
        12           Ti  tau(  12) = (   0.4425463   0.0000000   0.7728106  )
        13           O   tau(  13) = (   0.1726703   0.0000000   0.0686941  )
        14           O   tau(  14) = (   0.8993764   0.0000000   0.7556356  )
        15           O   tau(  15) = (   0.0360259   0.0000000   0.4121649  )
        16           O   tau(  16) = (   0.5360238   0.1848271   0.4121649  )
        17           O   tau(  17) = (   0.6726683   0.1848271   0.0686941  )
        18           O   tau(  18) = (   0.3993784   0.1848271   0.7556356  )
        19           O   tau(  19) = (   0.3885084   0.1848271   0.1545633  )
        20           O   tau(  20) = (   0.1152185   0.1848271   0.8415048  )
        21           O   tau(  21) = (   0.2518630   0.1848271   0.4980340  )
        22           O   tau(  22) = (   0.7518610   0.0000000   0.4980340  )
        23           O   tau(  23) = (   0.8885064   0.0000000   0.1545633  )
        24           O   tau(  24) = (   0.6152166   0.0000000   0.8415048  )
        25           O   tau(  25) = (   0.4065204   0.0000000   0.3606457  )
        26           O   tau(  26) = (   0.5431658   0.0000000   0.0171750  )
        27           O   tau(  27) = (   0.2698759   0.0000000   0.7041165  )
        28           O   tau(  28) = (   0.0431678   0.1848271   0.0171750  )
        29           O   tau(  29) = (   0.7698739   0.1848271   0.7041165  )
        30           O   tau(  30) = (   0.9065183   0.1848271   0.3606457  )
        31           O   tau(  31) = (   0.1906832   0.1848271   0.2747766  )
        32           O   tau(  32) = (   0.9173894   0.1848271   0.9617181  )
        33           O   tau(  33) = (   0.0540378   0.1848271   0.6182473  )
        34           O   tau(  34) = (   0.6906812   0.0000000   0.2747766  )
        35           O   tau(  35) = (   0.4173913   0.0000000   0.9617181  )
        36           O   tau(  36) = (   0.5540357   0.0000000   0.6182473  )

     number of k points=     1  Marzari-Vanderbilt smearing, width (Ry)=  0.0050
                       cart. coord. in units 2pi/alat
        k(    1) = (   0.0000000   0.0000000   0.0000000), wk =   2.0000000

     Dense  grid:   617302 G-vectors     FFT dimensions: ( 144,  54, 360)

     Smooth grid:   156098 G-vectors     FFT dimensions: (  90,  36, 216)

     Estimated max dynamical RAM per process >      37.54 MB

     Estimated total dynamical RAM >       3.30 GB

     Check: negative core charge=   -0.000001

     Initial potential from superposition of free atoms

     starting charge     287.9822, renormalised to     288.0000

     negative rho (up, down):  2.977E-03 0.000E+00
     Starting wfcs are  216 randomized atomic wfcs

     total cpu time spent up to now is        2.5 secs

     per-process dynamical memory:    30.0 Mb

     Self-consistent Calculation

     iteration #  1     ecut=    50.00 Ry     beta= 0.70
     Davidson diagonalization with overlap
     ethr =  1.00E-02,  avg # of iterations =  2.0

     negative rho (up, down):  1.770E-02 0.000E+00

     total cpu time spent up to now is        5.4 secs

     total energy              =   -2211.47776862 Ry
     estimated scf accuracy    <      35.03746629 Ry

     iteration #  2     ecut=    50.00 Ry     beta= 0.70
     Davidson diagonalization with overlap
     ethr =  1.00E-02,  avg # of iterations =  2.0

     negative rho (up, down):  3.353E-03 0.000E+00

     total cpu time spent up to now is        8.2 secs

     total energy              =   -2212.93940205 Ry
     estimated scf accuracy    <      39.53693250 Ry

     iteration #  3     ecut=    50.00 Ry     beta= 0.70
     Davidson diagonalization with overlap
     ethr =  1.00E-02,  avg # of iterations =  1.0

     negative rho (up, down):  7.376E-05 0.000E+00

     total cpu time spent up to now is       11.0 secs

     total energy              =   -2215.75093633 Ry
     estimated scf accuracy    <      13.26030278 Ry

     iteration #  4     ecut=    50.00 Ry     beta= 0.70
     Davidson diagonalization with overlap
     ethr =  4.60E-03,  avg # of iterations =  2.0

     negative rho (up, down):  4.299E-04 0.000E+00

     total cpu time spent up to now is       13.5 secs

     total energy              =   -2215.81166343 Ry
     estimated scf accuracy    <      11.11541043 Ry

     iteration #  5     ecut=    50.00 Ry     beta= 0.70
     Davidson diagonalization with overlap
     ethr =  3.86E-03,  avg # of iterations =  1.0
     Minimization algorithm failed to find Fermi energy: reverting to bisection
     Possible cause: smearing is larger than the electronic band-gap.

     negative rho (up, down):  2.169E-03 0.000E+00

     total cpu time spent up to now is       15.3 secs

     total energy              =   -2215.83103307 Ry
     estimated scf accuracy    <       9.97935216 Ry

     iteration #  6     ecut=    50.00 Ry     beta= 0.70
     Davidson diagonalization with overlap
     ethr =  3.47E-03,  avg # of iterations =  1.0

     negative rho (up, down):  3.141E-03 0.000E+00

     total cpu time spent up to now is       17.5 secs

     total energy              =   -2215.74432948 Ry
     estimated scf accuracy    <      17.11976554 Ry

     iteration #  7     ecut=    50.00 Ry     beta= 0.70
     Davidson diagonalization with overlap
     ethr =  3.47E-03,  avg # of iterations =  1.0

     negative rho (up, down):  1.239E-03 0.000E+00

     total cpu time spent up to now is       19.7 secs

     total energy              =   -2216.11318005 Ry
     estimated scf accuracy    <       0.95055490 Ry

     iteration #  8     ecut=    50.00 Ry     beta= 0.70
     Davidson diagonalization with overlap
     ethr =  3.30E-04,  avg # of iterations = 14.0
     Minimization algorithm failed to find Fermi energy: reverting to bisection
     Possible cause: smearing is larger than the electronic band-gap.

     negative rho (up, down):  4.863E-03 0.000E+00

     total cpu time spent up to now is       23.6 secs

     total energy              =   -2216.31491993 Ry
     estimated scf accuracy    <       9.20366949 Ry

     iteration #  9     ecut=    50.00 Ry     beta= 0.70
     Davidson diagonalization with overlap
     ethr =  3.30E-04,  avg # of iterations =  2.0
     Minimization algorithm failed to find Fermi energy: reverting to bisection
     Possible cause: smearing is larger than the electronic band-gap.

     negative rho (up, down):  1.287E-02 0.000E+00

     total cpu time spent up to now is       26.3 secs

     total energy              =   -2216.20553939 Ry
     estimated scf accuracy    <       9.92555667 Ry

     iteration # 10     ecut=    50.00 Ry     beta= 0.70
     Davidson diagonalization with overlap
     ethr =  3.30E-04,  avg # of iterations =  2.0

     negative rho (up, down):  1.074E-02 0.000E+00

     total cpu time spent up to now is       29.1 secs

     total energy              =   -2216.27450683 Ry
     estimated scf accuracy    <      21.59263712 Ry

     iteration # 11     ecut=    50.00 Ry     beta= 0.70
     Davidson diagonalization with overlap
     ethr =  3.30E-04,  avg # of iterations =  2.0

     negative rho (up, down):  7.337E-03 0.000E+00

     total cpu time spent up to now is       31.5 secs

     total energy              =   -2216.32927139 Ry
     estimated scf accuracy    <       1.85702711 Ry

     iteration # 12     ecut=    50.00 Ry     beta= 0.70
     Davidson diagonalization with overlap
     ethr =  3.30E-04,  avg # of iterations =  1.0

     negative rho (up, down):  6.449E-03 0.000E+00

     total cpu time spent up to now is       33.4 secs

     total energy              =   -2216.31345309 Ry
     estimated scf accuracy    <       2.57763664 Ry

     iteration # 13     ecut=    50.00 Ry     beta= 0.70
     Davidson diagonalization with overlap
     ethr =  3.30E-04,  avg # of iterations =  2.0

     negative rho (up, down):  5.681E-03 0.000E+00

     total cpu time spent up to now is       35.9 secs

     total energy              =   -2216.32199835 Ry
     estimated scf accuracy    <       0.61262659 Ry

     iteration # 14     ecut=    50.00 Ry     beta= 0.70
     Davidson diagonalization with overlap
     ethr =  2.13E-04,  avg # of iterations =  2.0

     negative rho (up, down):  3.656E-03 0.000E+00

     total cpu time spent up to now is       38.4 secs

     total energy              =   -2216.29646792 Ry
     estimated scf accuracy    <       1.03125396 Ry

     iteration # 15     ecut=    50.00 Ry     beta= 0.70
     Davidson diagonalization with overlap
     ethr =  2.13E-04,  avg # of iterations =  2.0

     negative rho (up, down):  4.444E-03 0.000E+00

     total cpu time spent up to now is       40.9 secs

     total energy              =   -2216.22705829 Ry
     estimated scf accuracy    <       1.72783702 Ry

     iteration # 16     ecut=    50.00 Ry     beta= 0.70
     Davidson diagonalization with overlap
     ethr =  2.13E-04,  avg # of iterations = 19.0

     negative rho (up, down):  3.612E-03 0.000E+00

     total cpu time spent up to now is       48.4 secs

     total energy              =   -2216.04723355 Ry
     estimated scf accuracy    <      18.58232965 Ry

     iteration # 17     ecut=    50.00 Ry     beta= 0.70
     Davidson diagonalization with overlap
     ethr =  2.13E-04,  avg # of iterations =  2.0

     negative rho (up, down):  2.056E-04 0.000E+00

     total cpu time spent up to now is       51.2 secs

     total energy              =   -2216.28027825 Ry
     estimated scf accuracy    <       4.86117251 Ry

     iteration # 18     ecut=    50.00 Ry     beta= 0.70
     Davidson diagonalization with overlap
     ethr =  2.13E-04,  avg # of iterations =  1.0

     negative rho (up, down):  1.625E-04 0.000E+00

     total cpu time spent up to now is       53.1 secs

     total energy              =   -2216.28520380 Ry
     estimated scf accuracy    <       0.59165272 Ry

     iteration # 19     ecut=    50.00 Ry     beta= 0.70
     Davidson diagonalization with overlap
     ethr =  2.05E-04,  avg # of iterations =  1.0

     negative rho (up, down):  1.279E-04 0.000E+00

     total cpu time spent up to now is       55.2 secs

     total energy              =   -2216.28254155 Ry
     estimated scf accuracy    <       1.35110722 Ry

     iteration # 20     ecut=    50.00 Ry     beta= 0.70
     Davidson diagonalization with overlap
     ethr =  2.05E-04,  avg # of iterations =  1.0

     negative rho (up, down):  6.948E-05 0.000E+00

     total cpu time spent up to now is       57.2 secs

     total energy              =   -2216.28416581 Ry
     estimated scf accuracy    <       0.15114743 Ry

     iteration # 21     ecut=    50.00 Ry     beta= 0.70
     Davidson diagonalization with overlap
     ethr =  5.25E-05,  avg # of iterations =  2.0

     negative rho (up, down):  1.642E-05 0.000E+00

     total cpu time spent up to now is       59.8 secs

     total energy              =   -2216.28223809 Ry
     estimated scf accuracy    <       0.25709205 Ry

     iteration # 22     ecut=    50.00 Ry     beta= 0.70
     Davidson diagonalization with overlap
     ethr =  5.25E-05,  avg # of iterations =  2.0

     negative rho (up, down):  1.824E-05 0.000E+00

     total cpu time spent up to now is       62.0 secs

     total energy              =   -2216.28277978 Ry
     estimated scf accuracy    <       0.02688202 Ry

     iteration # 23     ecut=    50.00 Ry     beta= 0.70
     Davidson diagonalization with overlap
     c_bands:  2 eigenvalues not converged
     ethr =  9.33E-06,  avg # of iterations = 20.0

     negative rho (up, down):  4.960E-05 0.000E+00

     total cpu time spent up to now is       66.5 secs

     total energy              =   -2216.28456124 Ry
     estimated scf accuracy    <       0.03211950 Ry

     iteration # 24     ecut=    50.00 Ry     beta= 0.70
     Davidson diagonalization with overlap
     ethr =  9.33E-06,  avg # of iterations =  2.0

     negative rho (up, down):  2.711E-05 0.000E+00

     total cpu time spent up to now is       68.9 secs

     total energy              =   -2216.28449052 Ry
     estimated scf accuracy    <       0.11414436 Ry

     iteration # 25     ecut=    50.00 Ry     beta= 0.70
     Davidson diagonalization with overlap
     ethr =  9.33E-06,  avg # of iterations =  1.0

     negative rho (up, down):  9.414E-05 0.000E+00

     total cpu time spent up to now is       71.0 secs

     total energy              =   -2216.28499251 Ry
     estimated scf accuracy    <       0.00751765 Ry

     iteration # 26     ecut=    50.00 Ry     beta= 0.70
     Davidson diagonalization with overlap
     ethr =  2.61E-06,  avg # of iterations =  2.0

     negative rho (up, down):  6.772E-05 0.000E+00

     total cpu time spent up to now is       73.4 secs

     total energy              =   -2216.28557317 Ry
     estimated scf accuracy    <       0.20779242 Ry

     iteration # 27     ecut=    50.00 Ry     beta= 0.70
     Davidson diagonalization with overlap
     ethr =  2.61E-06,  avg # of iterations =  2.0

     negative rho (up, down):  6.714E-05 0.000E+00

     total cpu time spent up to now is       76.2 secs

     total energy              =   -2216.28509534 Ry
     estimated scf accuracy    <       0.27110315 Ry

     iteration # 28     ecut=    50.00 Ry     beta= 0.70
     Davidson diagonalization with overlap
     ethr =  2.61E-06,  avg # of iterations =  2.0

     negative rho (up, down):  4.331E-04 0.000E+00

     total cpu time spent up to now is       78.7 secs

     total energy              =   -2216.28553320 Ry
     estimated scf accuracy    <       0.13561361 Ry

     iteration # 29     ecut=    50.00 Ry     beta= 0.70
     Davidson diagonalization with overlap
     ethr =  2.61E-06,  avg # of iterations =  2.0

     negative rho (up, down):  4.662E-05 0.000E+00

     total cpu time spent up to now is       80.9 secs

     total energy              =   -2216.28442658 Ry
     estimated scf accuracy    <       0.28984554 Ry

     iteration # 30     ecut=    50.00 Ry     beta= 0.70
     Davidson diagonalization with overlap
     ethr =  2.61E-06,  avg # of iterations =  2.0

     negative rho (up, down):  7.940E-05 0.000E+00

     total cpu time spent up to now is       83.4 secs

     total energy              =   -2216.28549920 Ry
     estimated scf accuracy    <       0.04905139 Ry

     iteration # 31     ecut=    50.00 Ry     beta= 0.70
     Davidson diagonalization with overlap
     ethr =  2.61E-06,  avg # of iterations =  2.0

     negative rho (up, down):  2.965E-04 0.000E+00

     total cpu time spent up to now is       85.6 secs

     total energy              =   -2216.28553580 Ry
     estimated scf accuracy    <       0.02405747 Ry

     iteration # 32     ecut=    50.00 Ry     beta= 0.70
     Davidson diagonalization with overlap
     ethr =  2.61E-06,  avg # of iterations =  1.0

     negative rho (up, down):  4.774E-04 0.000E+00

     total cpu time spent up to now is       87.8 secs

     total energy              =   -2216.28561630 Ry
     estimated scf accuracy    <       0.00120748 Ry

     iteration # 33     ecut=    50.00 Ry     beta= 0.70
     Davidson diagonalization with overlap
     ethr =  4.19E-07,  avg # of iterations =  2.0

     negative rho (up, down):  8.608E-04 0.000E+00

     total cpu time spent up to now is       90.6 secs

     total energy              =   -2216.28564698 Ry
     estimated scf accuracy    <       0.00059082 Ry

     iteration # 34     ecut=    50.00 Ry     beta= 0.70
     Davidson diagonalization with overlap
     ethr =  2.05E-07,  avg # of iterations =  2.0

     negative rho (up, down):  3.832E-04 0.000E+00

     total cpu time spent up to now is       93.3 secs

     total energy              =   -2216.28558058 Ry
     estimated scf accuracy    <       0.00945585 Ry

     iteration # 35     ecut=    50.00 Ry     beta= 0.70
     Davidson diagonalization with overlap
     ethr =  2.05E-07,  avg # of iterations =  2.0

     negative rho (up, down):  7.744E-04 0.000E+00

     total cpu time spent up to now is       95.9 secs

     total energy              =   -2216.28567511 Ry
     estimated scf accuracy    <       0.00295804 Ry

     iteration # 36     ecut=    50.00 Ry     beta= 0.70
     Davidson diagonalization with overlap
     ethr =  2.05E-07,  avg # of iterations =  2.0

     negative rho (up, down):  2.329E-03 0.000E+00

     total cpu time spent up to now is       98.3 secs

     total energy              =   -2216.28566483 Ry
     estimated scf accuracy    <       0.01126255 Ry

     iteration # 37     ecut=    50.00 Ry     beta= 0.70
     Davidson diagonalization with overlap
     ethr =  2.05E-07,  avg # of iterations =  2.0

     negative rho (up, down):  2.922E-03 0.000E+00

     total cpu time spent up to now is      101.4 secs

     total energy              =   -2216.28568506 Ry
     estimated scf accuracy    <       0.00067137 Ry

     iteration # 38     ecut=    50.00 Ry     beta= 0.70
     Davidson diagonalization with overlap
     ethr =  2.05E-07,  avg # of iterations =  2.0

     negative rho (up, down):  2.259E-03 0.000E+00

     total cpu time spent up to now is      104.2 secs

     total energy              =   -2216.28569115 Ry
     estimated scf accuracy    <       0.00034973 Ry

     iteration # 39     ecut=    50.00 Ry     beta= 0.70
     Davidson diagonalization with overlap
     ethr =  1.21E-07,  avg # of iterations =  2.0

     negative rho (up, down):  2.939E-03 0.000E+00

     total cpu time spent up to now is      106.9 secs

     total energy              =   -2216.28569379 Ry
     estimated scf accuracy    <       0.00038140 Ry

     iteration # 40     ecut=    50.00 Ry     beta= 0.70
     Davidson diagonalization with overlap
     ethr =  1.21E-07,  avg # of iterations =  1.0

     negative rho (up, down):  3.185E-03 0.000E+00

     total cpu time spent up to now is      108.8 secs

     total energy              =   -2216.28569856 Ry
     estimated scf accuracy    <       0.00005133 Ry

     iteration # 41     ecut=    50.00 Ry     beta= 0.70
     Davidson diagonalization with overlap
     ethr =  1.78E-08,  avg # of iterations = 17.0

     negative rho (up, down):  3.220E-03 0.000E+00

     total cpu time spent up to now is      114.6 secs

     total energy              =   -2216.28570974 Ry
     estimated scf accuracy    <       0.00002454 Ry

     iteration # 42     ecut=    50.00 Ry     beta= 0.70
     Davidson diagonalization with overlap
     ethr =  8.52E-09,  avg # of iterations =  2.0

     negative rho (up, down):  3.171E-03 0.000E+00

     total cpu time spent up to now is      117.4 secs

     total energy              =   -2216.28571014 Ry
     estimated scf accuracy    <       0.00002806 Ry

     iteration # 43     ecut=    50.00 Ry     beta= 0.70
     Davidson diagonalization with overlap
     ethr =  8.52E-09,  avg # of iterations =  1.0

     negative rho (up, down):  3.314E-03 0.000E+00

     total cpu time spent up to now is      119.7 secs

     total energy              =   -2216.28571013 Ry
     estimated scf accuracy    <       0.00004563 Ry

     iteration # 44     ecut=    50.00 Ry     beta= 0.70
     Davidson diagonalization with overlap
     ethr =  8.52E-09,  avg # of iterations =  1.0

     negative rho (up, down):  2.947E-03 0.000E+00

     total cpu time spent up to now is      121.3 secs

     End of self-consistent calculation

          k = 0.0000 0.0000 0.0000 ( 19467 PWs)   bands (ev):

   -58.8317 -58.8306 -58.4428 -58.4416 -58.0733 -58.0720 -57.6994 -57.6980
   -56.7538 -56.7530 -56.1359 -56.1350 -35.2716 -35.2690 -35.1274 -35.0690
   -35.0044 -34.9819 -34.8544 -34.8516 -34.7740 -34.7535 -34.5898 -34.5732
   -34.4096 -34.4074 -34.3876 -34.3486 -34.3453 -34.3380 -34.0124 -33.9932
   -33.9770 -33.9735 -33.9664 -33.9281 -33.0937 -33.0892 -33.0612 -33.0531
   -33.0512 -33.0280 -32.4865 -32.4442 -32.4433 -32.4411 -32.3727 -32.3722
   -19.7783 -19.5390 -19.2197 -19.1015 -18.8469 -18.7359 -18.6007 -18.5902
   -18.2563 -18.1813 -17.8811 -17.8216 -17.5606 -17.4435 -17.3012 -17.2938
   -17.0966 -16.9360 -16.3089 -16.2686 -16.0400 -15.9596 -15.3123 -15.2976
    -6.7335  -6.6341  -6.4467  -6.4213  -6.3994  -6.3752  -6.0568  -5.9775
    -5.8603  -5.5665  -5.3543  -5.2874  -5.2802  -5.2352  -5.1932  -4.9843
    -4.8803  -4.7642  -4.7219  -4.7113  -4.6129  -4.5880  -4.2561  -4.1540
    -4.1179  -4.1029  -4.0106  -4.0027  -3.9225  -3.8975  -3.8869  -3.7633
    -3.7315  -3.6550  -3.3947  -3.2384  -3.2200  -3.2146  -3.1850  -3.1819
    -3.0047  -3.0042  -2.9289  -2.8866  -2.7650  -2.5743  -2.5471  -2.5203
    -2.4244  -2.1817  -2.1364  -1.9584  -1.8815  -1.7513  -1.7476  -1.6564
    -1.5685  -1.3249  -1.3110  -1.1762  -1.0257  -0.8868  -0.8018  -0.6461
    -0.6306  -0.6093  -0.5153  -0.4526  -0.2690  -0.1361  -0.1263  -0.1037
    -0.0758  -0.0207  -0.0107  -0.0085   0.3518   0.4681   0.4699   0.4779
     0.9521   1.0421   1.1598   1.4015   1.4586   1.5213   1.6351   1.7033
     1.7315   1.7582   2.0077   2.0442   2.0483   2.1794   2.3541   2.4249
     2.4270   2.5378   2.6424   2.7145   2.7179

     the Fermi energy is    -0.0790 ev

!    total energy              =   -2216.28570853 Ry
     estimated scf accuracy    <       0.00000325 Ry
     smearing contrib. (-TS)   =      -0.00358613 Ry
     internal energy E=F+TS    =   -2216.28212239 Ry

     The total energy is F=E-TS. E is the sum of the following terms:
     one-electron contribution =  -21033.52543260 Ry
     hartree contribution      =   10555.92353946 Ry
     xc contribution           =    -401.24385666 Ry
     ewald contribution        =    8662.56362741 Ry

     convergence has been achieved in  44 iterations

     negative rho (up, down):  2.947E-03 0.000E+00

     Forces acting on atoms (cartesian axes, Ry/au):

     atom    1 type  1   force =    -0.23164857    0.00000000    0.04097705
     atom    2 type  1   force =    -0.20744747    0.00000000    0.02660595
     atom    3 type  1   force =    -0.19762434    0.00000000    0.00766488
     atom    4 type  1   force =    -0.19767992    0.00000000    0.00757606
     atom    5 type  1   force =    -0.23196350    0.00000000    0.04096387
     atom    6 type  1   force =    -0.20731764    0.00000000    0.02653995
     atom    7 type  1   force =     0.14721276    0.00000000    0.17834454
     atom    8 type  1   force =     0.21022964    0.00000000    0.19115623
     atom    9 type  1   force =     0.17409067    0.00000000    0.16421242
     atom   10 type  1   force =     0.17408673    0.00000000    0.16429070
     atom   11 type  1   force =     0.14717503    0.00000000    0.17851149
     atom   12 type  1   force =     0.21018666    0.00000000    0.19149662
     atom   13 type  2   force =    -0.09641213    0.00000000   -0.08483931
     atom   14 type  2   force =    -0.10964228    0.00000000   -0.05536741
     atom   15 type  2   force =    -0.10517148    0.00000000   -0.05704995
     atom   16 type  2   force =    -0.10510867    0.00000000   -0.05704758
     atom   17 type  2   force =    -0.09625520    0.00000000   -0.08482080
     atom   18 type  2   force =    -0.10965555    0.00000000   -0.05538394
     atom   19 type  2   force =     0.08690188    0.00000000   -0.10256645
     atom   20 type  2   force =     0.02954321    0.00000000   -0.01846077
     atom   21 type  2   force =     0.08335331    0.00000000   -0.03858901
     atom   22 type  2   force =     0.08336632    0.00000000   -0.03861532
     atom   23 type  2   force =     0.08682072    0.00000000   -0.10265980
     atom   24 type  2   force =     0.02968655    0.00000000   -0.01852637
     atom   25 type  2   force =     0.09469373    0.00000000    0.02127014
     atom   26 type  2   force =     0.10234614    0.00000000   -0.01943604
     atom   27 type  2   force =     0.08021325    0.00000000    0.02780124
     atom   28 type  2   force =     0.10223175    0.00000000   -0.01946055
     atom   29 type  2   force =     0.08027367    0.00000000    0.02779903
     atom   30 type  2   force =     0.09468765    0.00000000    0.02127489
     atom   31 type  2   force =    -0.04612162    0.00000000   -0.08838588
     atom   32 type  2   force =     0.03227650    0.00000000   -0.08413039
     atom   33 type  2   force =    -0.04668698    0.00000000   -0.10932910
     atom   34 type  2   force =    -0.04612573    0.00000000   -0.08847005
     atom   35 type  2   force =     0.03217237    0.00000000   -0.08396722
     atom   36 type  2   force =    -0.04668744    0.00000000   -0.10937912
     The non-local contrib.  to forces
     atom    1 type  1   force =     0.13081735    0.00000000   -0.00286515
     atom    2 type  1   force =     0.13990748    0.00000000    0.10181932
     atom    3 type  1   force =     0.17084094    0.00000000    0.08005935
     atom    4 type  1   force =     0.17082451    0.00000000    0.08002614
     atom    5 type  1   force =     0.13046889    0.00000000   -0.00287910
     atom    6 type  1   force =     0.13999710    0.00000000    0.10175304
     atom    7 type  1   force =    -0.07863101    0.00000000   -0.10238340
     atom    8 type  1   force =    -0.12160522    0.00000000    0.00377886
     atom    9 type  1   force =    -0.14982301    0.00000000   -0.04026646
     atom   10 type  1   force =    -0.14985862    0.00000000   -0.04021939
     atom   11 type  1   force =    -0.07889600    0.00000000   -0.10227915
     atom   12 type  1   force =    -0.12150139    0.00000000    0.00394042
     atom   13 type  2   force =     0.24386272    0.00000000   -0.04731154
     atom   14 type  2   force =     0.27670613    0.00000000    0.00480159
     atom   15 type  2   force =     0.32690707    0.00000000    0.05914165
     atom   16 type  2   force =     0.32703025    0.00000000    0.05912800
     atom   17 type  2   force =     0.24416193    0.00000000   -0.04725238
     atom   18 type  2   force =     0.27672057    0.00000000    0.00481702
     atom   19 type  2   force =    -0.20972012    0.00000000   -0.39478401
     atom   20 type  2   force =    -0.35392424    0.00000000   -0.76337413
     atom   21 type  2   force =    -0.22457818    0.00000000   -0.25026021
     atom   22 type  2   force =    -0.22457150    0.00000000   -0.25036046
     atom   23 type  2   force =    -0.20984304    0.00000000   -0.39480558
     atom   24 type  2   force =    -0.35360104    0.00000000   -0.76383452
     atom   25 type  2   force =    -0.38133124    0.00000000   -0.23350233
     atom   26 type  2   force =    -0.30164040    0.00000000   -0.30668381
     atom   27 type  2   force =    -0.38691243    0.00000000   -0.22397477
     atom   28 type  2   force =    -0.30174948    0.00000000   -0.30671591
     atom   29 type  2   force =    -0.38688536    0.00000000   -0.22399964
     atom   30 type  2   force =    -0.38142612    0.00000000   -0.23352999
     atom   31 type  2   force =     0.31782096    0.00000000   -0.09379464
     atom   32 type  2   force =     0.15401107    0.00000000   -0.94416212
     atom   33 type  2   force =     0.29309756    0.00000000   -0.10371456
     atom   34 type  2   force =     0.31772922    0.00000000   -0.09392549
     atom   35 type  2   force =     0.15376160    0.00000000   -0.94390232
     atom   36 type  2   force =     0.29309125    0.00000000   -0.10373608
     The ionic contribution  to forces
     atom    1 type  1   force =    -8.43315499   -0.00000000 -149.17971041
     atom    2 type  1   force =    -0.72813015   -0.00000000   90.93949166
     atom    3 type  1   force =    -0.05438477   -0.00000000  -30.41212897
     atom    4 type  1   force =    -0.05560576    0.00000000  -30.41242703
     atom    5 type  1   force =    -8.43254130    0.00000000 -149.18037020
     atom    6 type  1   force =    -0.72920040    0.00000000   90.93971566
     atom    7 type  1   force =     5.43977128    0.00000000 -122.38972068
     atom    8 type  1   force =     1.68833561    0.00000000  119.88971247
     atom    9 type  1   force =     0.01270165    0.00000000    0.07598567
     atom   10 type  1   force =     0.01393812    0.00000000    0.07625742
     atom   11 type  1   force =     5.44075431    0.00000000 -122.38991941
     atom   12 type  1   force =     1.68729041    0.00000000  119.89012177
     atom   13 type  2   force =     5.78335018   -0.00000000  -59.89549121
     atom   14 type  2   force =     4.81945902   -0.00000000   58.35894357
     atom   15 type  2   force =     4.65878745    0.00000000   -1.13750492
     atom   16 type  2   force =     4.65950049   -0.00000000   -1.13724323
     atom   17 type  2   force =     5.78380028    0.00000000  -59.89560935
     atom   18 type  2   force =     4.81908270    0.00000000   58.35910335
     atom   19 type  2   force =     4.00478966    0.00000000  -47.66349150
     atom   20 type  2   force =     4.45384260    0.00000000   78.67558244
     atom   21 type  2   force =     4.64437012    0.00000000   13.94255024
     atom   22 type  2   force =     4.64494326    0.00000000   13.94248392
     atom   23 type  2   force =     4.00511421   -0.00000000  -47.66376444
     atom   24 type  2   force =     4.45455919    0.00000000   78.67585022
     atom   25 type  2   force =    -4.71225223   -0.00000000  -13.98069240
     atom   26 type  2   force =    -5.52174495   -0.00000000  -70.43096377
     atom   27 type  2   force =    -5.06158634    0.00000000   46.39419353
     atom   28 type  2   force =    -5.52205479    0.00000000  -70.43077065
     atom   29 type  2   force =    -5.06107822   -0.00000000   46.39407695
     atom   30 type  2   force =    -4.71154502   -0.00000000  -13.98041341
     atom   31 type  2   force =    -4.48140674    0.00000000  -29.04204260
     atom   32 type  2   force =    -1.96404585    0.00000000   84.34339990
     atom   33 type  2   force =    -4.55043536   -0.00000000   31.51181509
     atom   34 type  2   force =    -4.48084484    0.00000000  -29.04211427
     atom   35 type  2   force =    -1.96429789    0.00000000   84.34358465
     atom   36 type  2   force =    -4.55008093   -0.00000000   31.51150994
     The local contribution  to forces
     atom    1 type  1   force =     8.08977801    0.00000060  149.24308062
     atom    2 type  1   force =     0.39449762   -0.00007436  -91.00376101
     atom    3 type  1   force =    -0.29740703   -0.00010231   30.34984343
     atom    4 type  1   force =    -0.29616398   -0.00003231   30.34918027
     atom    5 type  1   force =     8.08622522   -0.00000662  149.24372074
     atom    6 type  1   force =     0.39711472    0.00003332  -91.00370876
     atom    7 type  1   force =    -5.22557052   -0.00002795  122.66953226
     atom    8 type  1   force =    -1.36849840    0.00003226 -119.69812677
     atom    9 type  1   force =     0.29559905   -0.00005205    0.12476512
     atom   10 type  1   force =     0.29443069    0.00008704    0.12523575
     atom   11 type  1   force =    -5.22780703    0.00000554  122.67108002
     atom   12 type  1   force =    -1.36721225   -0.00014808 -119.69650539
     atom   13 type  2   force =    -6.11878172    0.00000655   59.85777283
     atom   14 type  2   force =    -5.20148723    0.00004838  -58.41797162
     atom   15 type  2   force =    -5.08542278   -0.00000820    1.02196169
     atom   16 type  2   force =    -5.08616363   -0.00003909    1.02189570
     atom   17 type  2   force =    -6.12048879    0.00000513   59.85815942
     atom   18 type  2   force =    -5.20058208    0.00000016  -58.41752834
     atom   19 type  2   force =    -3.70914432   -0.00000669   47.95124977
     atom   20 type  2   force =    -4.07191280    0.00058936  -77.93462434
     atom   21 type  2   force =    -4.33733666   -0.00000556  -13.73342502
     atom   22 type  2   force =    -4.33824144   -0.00006197  -13.73306627
     atom   23 type  2   force =    -3.70854128    0.00000038   47.95230795
     atom   24 type  2   force =    -4.07390565   -0.00053301  -77.93445492
     atom   25 type  2   force =     5.18248371    0.00004827   14.23152535
     atom   26 type  2   force =     5.91955472    0.00000051   70.71404010
     atom   27 type  2   force =     5.52292706   -0.00006331  -46.14501720
     atom   28 type  2   force =     5.92150778   -0.00000101   70.71397792
     atom   29 type  2   force =     5.52163350    0.00003009  -46.14535360
     atom   30 type  2   force =     5.18184615    0.00004877   14.23150954
     atom   31 type  2   force =     4.11937064   -0.00002369   29.04498096
     atom   32 type  2   force =     1.84383193    0.00041112  -83.48951139
     atom   33 type  2   force =     4.21240215    0.00005369  -31.51944928
     atom   34 type  2   force =     4.11856226    0.00001899   29.04599484
     atom   35 type  2   force =     1.84437398   -0.00034253  -83.48991778
     atom   36 type  2   force =     4.21217510   -0.00005543  -31.51887581
     The core correction contribution to forces
     atom    1 type  1   force =    -0.01794668    0.00000067   -0.02021614
     atom    2 type  1   force =    -0.01449108   -0.00000730   -0.01100214
     atom    3 type  1   force =    -0.01650901   -0.00000329   -0.01119717
     atom    4 type  1   force =    -0.01650659    0.00000021   -0.01120018
     atom    5 type  1   force =    -0.01792451   -0.00000054   -0.02021391
     atom    6 type  1   force =    -0.01449095    0.00000631   -0.01099652
     atom    7 type  1   force =     0.01236345   -0.00000144   -0.00054419
     atom    8 type  1   force =     0.01163429   -0.00000193   -0.00417647
     atom    9 type  1   force =     0.01553889   -0.00000158    0.00155226
     atom   10 type  1   force =     0.01554341    0.00000178    0.00155329
     atom   11 type  1   force =     0.01238739    0.00000134   -0.00055038
     atom   12 type  1   force =     0.01162420   -0.00000122   -0.00417503
     atom   13 type  2   force =    -0.00438606    0.00000002   -0.00038764
     atom   14 type  2   force =    -0.00489730    0.00000069   -0.00106159
     atom   15 type  2   force =    -0.00537195   -0.00000006   -0.00154103
     atom   16 type  2   force =    -0.00537336   -0.00000001   -0.00154109
     atom   17 type  2   force =    -0.00438872    0.00000004   -0.00038826
     atom   18 type  2   force =    -0.00489771   -0.00000011   -0.00106206
     atom   19 type  2   force =     0.00067256   -0.00000001    0.00354674
     atom   20 type  2   force =     0.00244894    0.00000567    0.00468988
     atom   21 type  2   force =     0.00085877    0.00000017    0.00183106
     atom   22 type  2   force =     0.00085885   -0.00000068    0.00183212
     atom   23 type  2   force =     0.00067307    0.00000010    0.00354618
     atom   24 type  2   force =     0.00244541   -0.00000449    0.00469552
     atom   25 type  2   force =     0.00594874    0.00000001    0.00309088
     atom   26 type  2   force =     0.00506686    0.00000000    0.00377314
     atom   27 type  2   force =     0.00602970   -0.00000119    0.00293294
     atom   28 type  2   force =     0.00506691   -0.00000001    0.00377331
     atom   29 type  2   force =     0.00602988    0.00000084    0.00293313
     atom   30 type  2   force =     0.00594938    0.00000032    0.00309109
     atom   31 type  2   force =    -0.00180547   -0.00000017    0.00157292
     atom   32 type  2   force =    -0.00163236    0.00000401    0.00724777
     atom   33 type  2   force =    -0.00154429    0.00000035    0.00145769
     atom   34 type  2   force =    -0.00180414    0.00000022    0.00157379
     atom   35 type  2   force =    -0.00162941   -0.00000342    0.00724595
     atom   36 type  2   force =    -0.00154435   -0.00000051    0.00145786
     The Hubbard contrib.    to forces
     atom    1 type  1   force =     0.00000000    0.00000000    0.00000000
     atom    2 type  1   force =     0.00000000    0.00000000    0.00000000
     atom    3 type  1   force =     0.00000000    0.00000000    0.00000000
     atom    4 type  1   force =     0.00000000    0.00000000    0.00000000
     atom    5 type  1   force =     0.00000000    0.00000000    0.00000000
     atom    6 type  1   force =     0.00000000    0.00000000    0.00000000
     atom    7 type  1   force =     0.00000000    0.00000000    0.00000000
     atom    8 type  1   force =     0.00000000    0.00000000    0.00000000
     atom    9 type  1   force =     0.00000000    0.00000000    0.00000000
     atom   10 type  1   force =     0.00000000    0.00000000    0.00000000
     atom   11 type  1   force =     0.00000000    0.00000000    0.00000000
     atom   12 type  1   force =     0.00000000    0.00000000    0.00000000
     atom   13 type  2   force =     0.00000000    0.00000000    0.00000000
     atom   14 type  2   force =     0.00000000    0.00000000    0.00000000
     atom   15 type  2   force =     0.00000000    0.00000000    0.00000000
     atom   16 type  2   force =     0.00000000    0.00000000    0.00000000
     atom   17 type  2   force =     0.00000000    0.00000000    0.00000000
     atom   18 type  2   force =     0.00000000    0.00000000    0.00000000
     atom   19 type  2   force =     0.00000000    0.00000000    0.00000000
     atom   20 type  2   force =     0.00000000    0.00000000    0.00000000
     atom   21 type  2   force =     0.00000000    0.00000000    0.00000000
     atom   22 type  2   force =     0.00000000    0.00000000    0.00000000
     atom   23 type  2   force =     0.00000000    0.00000000    0.00000000
     atom   24 type  2   force =     0.00000000    0.00000000    0.00000000
     atom   25 type  2   force =     0.00000000    0.00000000    0.00000000
     atom   26 type  2   force =     0.00000000    0.00000000    0.00000000
     atom   27 type  2   force =     0.00000000    0.00000000    0.00000000
     atom   28 type  2   force =     0.00000000    0.00000000    0.00000000
     atom   29 type  2   force =     0.00000000    0.00000000    0.00000000
     atom   30 type  2   force =     0.00000000    0.00000000    0.00000000
     atom   31 type  2   force =     0.00000000    0.00000000    0.00000000
     atom   32 type  2   force =     0.00000000    0.00000000    0.00000000
     atom   33 type  2   force =     0.00000000    0.00000000    0.00000000
     atom   34 type  2   force =     0.00000000    0.00000000    0.00000000
     atom   35 type  2   force =     0.00000000    0.00000000    0.00000000
     atom   36 type  2   force =     0.00000000    0.00000000    0.00000000
     The SCF correction term to forces
     atom    1 type  1   force =    -0.00114658    0.00000282    0.00066778
     atom    2 type  1   force =     0.00076434   -0.00001379    0.00003777
     atom    3 type  1   force =    -0.00016879    0.00007378    0.00106788
     atom    4 type  1   force =    -0.00023242    0.00003833    0.00197650
     atom    5 type  1   force =     0.00180388    0.00000431    0.00068600
     atom    6 type  1   force =    -0.00074243    0.00005606   -0.00024382
     atom    7 type  1   force =    -0.00072476    0.00001075    0.00144020
     atom    8 type  1   force =     0.00035904   -0.00004359   -0.00005221
     atom    9 type  1   force =     0.00006977    0.00003360    0.00215548
     atom   10 type  1   force =     0.00002881   -0.00007564    0.00144328
     atom   11 type  1   force =     0.00073204    0.00001289    0.00016005
     atom   12 type  1   force =    -0.00001862    0.00010341   -0.00190550
     atom   13 type  2   force =    -0.00046156   -0.00000892    0.00055791
     atom   14 type  2   force =     0.00057278   -0.00000182   -0.00009972
     atom   15 type  2   force =    -0.00007558   -0.00000092    0.00087231
     atom   16 type  2   force =    -0.00010675    0.00003870    0.00069268
     atom   17 type  2   force =     0.00065578   -0.00000357    0.00024942
     atom   18 type  2   force =     0.00001665    0.00000714   -0.00073426
     atom   19 type  2   force =     0.00029978    0.00000457    0.00089219
     atom   20 type  2   force =    -0.00091561   -0.00019936   -0.00075497
     atom   21 type  2   force =     0.00003494    0.00001117    0.00069457
     atom   22 type  2   force =     0.00037282    0.00004788    0.00047502
     atom   23 type  2   force =    -0.00058657    0.00000741    0.00003572
     atom   24 type  2   force =     0.00018431    0.00020821   -0.00080302
     atom   25 type  2   force =    -0.00015957   -0.00004769    0.00082830
     atom   26 type  2   force =     0.00110557   -0.00000229    0.00037794
     atom   27 type  2   force =    -0.00024906   -0.00001828   -0.00035361
     atom   28 type  2   force =    -0.00054298    0.00000297    0.00025444
     atom   29 type  2   force =     0.00056954    0.00002537    0.00012183
     atom   30 type  2   force =    -0.00014106   -0.00002758    0.00059730
     atom   31 type  2   force =    -0.00010533    0.00001704    0.00087713
     atom   32 type  2   force =     0.00010739   -0.00015562   -0.00112490
     atom   33 type  2   force =    -0.00021136   -0.00003139    0.00054160
     atom   34 type  2   force =     0.00022745   -0.00000207   -0.00001927
     atom   35 type  2   force =    -0.00004023    0.00011309   -0.00099806
     atom   36 type  2   force =    -0.00033282    0.00002811    0.00024461

     Total force =     0.962391     Total SCF correction =     0.006317

     BFGS Geometry Optimization
     Energy error            =      0.0E+00 Ry
     Gradient error          =      2.3E-01 Ry/Bohr

     number of scf cycles    =   1
     number of bfgs steps    =   0

     energy             new  =   -2216.2857085269 Ry

     new trust radius        =       0.2843402676 bohr
     new conv_thr            =       0.0000100000 Ry


ATOMIC_POSITIONS (angstrom)
Ti           -0.1225831447        0.0000000000        0.0216841214
Ti            7.3311855274        0.0000000000        7.0478792619
Ti            8.7355367049        0.0000000000        3.5209560780
Ti            3.6158782905        1.8925000000        3.5209090787
Ti            4.9968792019        1.8925000000        0.0216771478
Ti            2.2116242296        1.8925000000        7.0478443348
Ti            2.2879326369        1.8925000000        0.9736158676
Ti            9.7622417356        1.8925000000        8.0141955207
Ti            0.9030028140        1.8925000000        4.4830374684
Ti            6.0226297282        0.0000000000        4.4830788951
Ti            7.4075426710        0.0000000000        0.9737042099
Ti            4.6425899913        0.0000000000        8.0143756468
O             1.7170038967        0.0000000000        0.6584849714
O             9.1509648023        0.0000000000        7.7078808268
O             0.3132256518        0.0000000000        4.1900904673
O             5.4328878857        1.8925000000        4.1900917198
O             6.8367169419        1.8925000000        0.6584947683
O             4.0313277824        1.8925000000        7.7078720802
O             4.0240404959        1.8925000000        1.5283441729
O             1.1953905950        1.8925000000        8.6066509816
O             2.6230096697        1.8925000000        5.0790995740
O             7.7426455580        0.0000000000        5.0790856541
O             9.1436275457        0.0000000000        1.5282947717
O             6.3150964434        0.0000000000        8.6066162650
O             4.2125937615        0.0000000000        3.7040156747
O             5.6157972437        0.0000000000        0.1655748921
O             2.8057870260        0.0000000000        7.2243717832
O             0.4961067139        1.8925000000        0.1655619226
O             7.9254489955        1.8925000000        7.2243706121
O             9.3322195450        1.8925000000        3.7040181865
O             1.9280564884        1.8925000000        2.7667482087
O             9.4105049871        1.8925000000        9.8028001161
O             0.5286033152        1.8925000000        6.2725655316
O             7.0476833130        0.0000000000        2.7667036635
O             4.2908198828        0.0000000000        9.8028864618
O             5.6482320729        0.0000000000        6.2725390631



     Writing config-only to output data dir ./outdir/tio2_slab.save/
     NEW-OLD atomic charge density approx. for the potential

     Check: negative core charge=   -0.000001

     negative rho (up, down):  3.071E-03 0.000E+00

     total cpu time spent up to now is      122.5 secs

     per-process dynamical memory:    47.6 Mb

     Self-consistent Calculation

     iteration #  1     ecut=    50.00 Ry     beta= 0.70
     Davidson diagonalization with overlap
     ethr =  1.00E-06,  avg # of iterations = 34.0

     negative rho (up, down):  1.188E-02 0.000E+00

     total cpu time spent up to now is      142.5 secs

     total energy              =   -2216.35377459 Ry
     estimated scf accuracy    <       2.71372057 Ry

     iteration #  2     ecut=    50.00 Ry     beta= 0.70
     Davidson diagonalization with overlap
     ethr =  9.42E-04,  avg # of iterations =  2.0

     negative rho (up, down):  2.643E-02 0.000E+00

     total cpu time spent up to now is      145.4 secs

     total energy              =   -2216.64895288 Ry
     estimated scf accuracy    <      86.92107629 Ry

     iteration #  3     ecut=    50.00 Ry     beta= 0.70
     Davidson diagonalization with overlap
     ethr =  9.42E-04,  avg # of iterations =  1.0

     negative rho (up, down):  1.228E-02 0.000E+00

     total cpu time spent up to now is      147.5 secs

     total energy              =   -2216.91349475 Ry
     estimated scf accuracy    <       2.73571146 Ry

     iteration #  4     ecut=    50.00 Ry     beta= 0.70
     Davidson diagonalization with overlap
     ethr =  9.42E-04,  avg # of iterations =  1.0

     negative rho (up, down):  8.823E-03 0.000E+00

     total cpu time spent up to now is      149.2 secs

     total energy              =   -2216.96286398 Ry
     estimated scf accuracy    <       0.52833968 Ry

     iteration #  5     ecut=    50.00 Ry     beta= 0.70
     Davidson diagonalization with overlap
     ethr =  1.83E-04,  avg # of iterations =  2.0

     negative rho (up, down):  7.629E-03 0.000E+00

     total cpu time spent up to now is      151.4 secs

     total energy              =   -2216.98284781 Ry
     estimated scf accuracy    <       4.27083888 Ry

     iteration #  6     ecut=    50.00 Ry     beta= 0.70
     Davidson diagonalization with overlap
     ethr =  1.83E-04,  avg # of iterations =  2.0

     negative rho (up, down):  7.046E-03 0.000E+00

     total cpu time spent up to now is      153.9 secs

     total energy              =   -2216.98650916 Ry
     estimated scf accuracy    <       1.43211651 Ry

     iteration #  7     ecut=    50.00 Ry     beta= 0.70
     Davidson diagonalization with overlap
     ethr =  1.83E-04,  avg # of iterations =  1.0

     negative rho (up, down):  4.833E-03 0.000E+00

     total cpu time spent up to now is      156.1 secs

     total energy              =   -2216.96365596 Ry
     estimated scf accuracy    <       1.72872981 Ry

     iteration #  8     ecut=    50.00 Ry     beta= 0.70
     Davidson diagonalization with overlap
     ethr =  1.83E-04,  avg # of iterations =  1.0

     negative rho (up, down):  2.844E-03 0.000E+00

     total cpu time spent up to now is      158.1 secs

     total energy              =   -2216.95689129 Ry
     estimated scf accuracy    <       0.56992370 Ry

     iteration #  9     ecut=    50.00 Ry     beta= 0.70
     Davidson diagonalization with overlap
     ethr =  1.83E-04,  avg # of iterations =  2.0

     negative rho (up, down):  2.437E-03 0.000E+00

     total cpu time spent up to now is      160.1 secs

     total energy              =   -2216.95627307 Ry
     estimated scf accuracy    <       0.52013458 Ry

     iteration # 10     ecut=    50.00 Ry     beta= 0.70
     Davidson diagonalization with overlap
     ethr =  1.81E-04,  avg # of iterations =  1.0

     negative rho (up, down):  2.418E-03 0.000E+00

     total cpu time spent up to now is      162.0 secs

     total energy              =   -2216.96753926 Ry
     estimated scf accuracy    <       0.19235780 Ry

     iteration # 11     ecut=    50.00 Ry     beta= 0.70
     Davidson diagonalization with overlap
     ethr =  6.68E-05,  avg # of iterations =  1.0

     negative rho (up, down):  3.660E-03 0.000E+00

     total cpu time spent up to now is      164.4 secs

     total energy              =   -2216.98889690 Ry
     estimated scf accuracy    <       0.23167130 Ry

     iteration # 12     ecut=    50.00 Ry     beta= 0.70
     Davidson diagonalization with overlap
     ethr =  6.68E-05,  avg # of iterations =  8.0

     negative rho (up, down):  2.317E-03 0.000E+00

     total cpu time spent up to now is      167.4 secs

     total energy              =   -2216.95829356 Ry
     estimated scf accuracy    <       0.47323600 Ry

     iteration # 13     ecut=    50.00 Ry     beta= 0.70
     Davidson diagonalization with overlap
     ethr =  6.68E-05,  avg # of iterations =  2.0

     negative rho (up, down):  2.069E-03 0.000E+00

     total cpu time spent up to now is      169.6 secs

     total energy              =   -2216.92857544 Ry
     estimated scf accuracy    <       0.87140827 Ry

     iteration # 14     ecut=    50.00 Ry     beta= 0.70
     Davidson diagonalization with overlap
     ethr =  6.68E-05,  avg # of iterations =  7.0

     negative rho (up, down):  3.171E-03 0.000E+00

     total cpu time spent up to now is      172.7 secs

     total energy              =   -2216.91836146 Ry
     estimated scf accuracy    <       0.93802786 Ry

     iteration # 15     ecut=    50.00 Ry     beta= 0.70
     Davidson diagonalization with overlap
     ethr =  6.68E-05,  avg # of iterations =  1.0

     negative rho (up, down):  3.318E-03 0.000E+00

     total cpu time spent up to now is      174.6 secs

     total energy              =   -2216.94875084 Ry
     estimated scf accuracy    <       0.18912235 Ry

     iteration # 16     ecut=    50.00 Ry     beta= 0.70
     Davidson diagonalization with overlap
     ethr =  6.57E-05,  avg # of iterations =  1.0

     negative rho (up, down):  4.499E-03 0.000E+00

     total cpu time spent up to now is      177.5 secs

     total energy              =   -2216.95051284 Ry
     estimated scf accuracy    <       0.44847712 Ry

     iteration # 17     ecut=    50.00 Ry     beta= 0.70
     Davidson diagonalization with overlap
     ethr =  6.57E-05,  avg # of iterations =  1.0

     negative rho (up, down):  6.469E-03 0.000E+00

     total cpu time spent up to now is      179.9 secs

     total energy              =   -2216.95138728 Ry
     estimated scf accuracy    <       0.25826601 Ry

     iteration # 18     ecut=    50.00 Ry     beta= 0.70
     Davidson diagonalization with overlap
     ethr =  6.57E-05,  avg # of iterations =  1.0

     negative rho (up, down):  6.683E-03 0.000E+00

     total cpu time spent up to now is      181.9 secs

     total energy              =   -2216.95153832 Ry
     estimated scf accuracy    <       0.14992776 Ry

     iteration # 19     ecut=    50.00 Ry     beta= 0.70
     Davidson diagonalization with overlap
     ethr =  5.21E-05,  avg # of iterations =  1.0

     negative rho (up, down):  6.525E-03 0.000E+00

     total cpu time spent up to now is      183.8 secs

     total energy              =   -2216.95182495 Ry
     estimated scf accuracy    <       0.10206906 Ry

     iteration # 20     ecut=    50.00 Ry     beta= 0.70
     Davidson diagonalization with overlap
     ethr =  3.54E-05,  avg # of iterations =  1.0

     negative rho (up, down):  6.598E-03 0.000E+00

     total cpu time spent up to now is      185.6 secs

     total energy              =   -2216.95181075 Ry
     estimated scf accuracy    <       0.07883199 Ry

     iteration # 21     ecut=    50.00 Ry     beta= 0.70
     Davidson diagonalization with overlap
     ethr =  2.74E-05,  avg # of iterations =  1.0

     negative rho (up, down):  6.338E-03 0.000E+00

     total cpu time spent up to now is      187.4 secs

     total energy              =   -2216.95108052 Ry
     estimated scf accuracy    <       0.05863514 Ry

     iteration # 22     ecut=    50.00 Ry     beta= 0.70
     Davidson diagonalization with overlap
     ethr =  2.04E-05,  avg # of iterations =  1.0

     negative rho (up, down):  5.958E-03 0.000E+00

     total cpu time spent up to now is      189.8 secs

     total energy              =   -2216.95106671 Ry
     estimated scf accuracy    <       0.03000442 Ry

     iteration # 23     ecut=    50.00 Ry     beta= 0.70
     Davidson diagonalization with overlap
     ethr =  1.04E-05,  avg # of iterations =  1.0

     negative rho (up, down):  3.500E-03 0.000E+00

     total cpu time spent up to now is      191.8 secs

     total energy              =   -2216.94902411 Ry
     estimated scf accuracy    <       0.02773579 Ry

     iteration # 24     ecut=    50.00 Ry     beta= 0.70
     Davidson diagonalization with overlap
     ethr =  9.63E-06,  avg # of iterations =  2.0

     negative rho (up, down):  5.735E-03 0.000E+00

     total cpu time spent up to now is      194.0 secs

     total energy              =   -2216.94615525 Ry
     estimated scf accuracy    <       0.12086751 Ry

     iteration # 25     ecut=    50.00 Ry     beta= 0.70
     Davidson diagonalization with overlap
     ethr =  9.63E-06,  avg # of iterations =  1.0

     negative rho (up, down):  5.542E-03 0.000E+00

     total cpu time spent up to now is      196.8 secs

     total energy              =   -2216.95063347 Ry
     estimated scf accuracy    <       0.00973548 Ry

     iteration # 26     ecut=    50.00 Ry     beta= 0.70
     Davidson diagonalization with overlap
     ethr =  3.38E-06,  avg # of iterations =  2.0

     negative rho (up, down):  4.985E-03 0.000E+00

     total cpu time spent up to now is      199.5 secs

     total energy              =   -2216.95038729 Ry
     estimated scf accuracy    <       0.00878995 Ry

     iteration # 27     ecut=    50.00 Ry     beta= 0.70
     Davidson diagonalization with overlap
     ethr =  3.05E-06,  avg # of iterations =  2.0

     negative rho (up, down):  4.308E-03 0.000E+00

     total cpu time spent up to now is      201.5 secs

     total energy              =   -2216.95029256 Ry
     estimated scf accuracy    <       0.00274140 Ry

     iteration # 28     ecut=    50.00 Ry     beta= 0.70
     Davidson diagonalization with overlap
     ethr =  9.52E-07,  avg # of iterations =  2.0

     negative rho (up, down):  4.535E-03 0.000E+00

     total cpu time spent up to now is      204.2 secs

     total energy              =   -2216.95036265 Ry
     estimated scf accuracy    <       0.00207542 Ry

     iteration # 29     ecut=    50.00 Ry     beta= 0.70
     Davidson diagonalization with overlap
     ethr =  7.21E-07,  avg # of iterations =  2.0

     negative rho (up, down):  4.233E-03 0.000E+00

     total cpu time spent up to now is      206.7 secs

     total energy              =   -2216.95041267 Ry
     estimated scf accuracy    <       0.00087830 Ry

     iteration # 30     ecut=    50.00 Ry     beta= 0.70
     Davidson diagonalization with overlap
     ethr =  3.05E-07,  avg # of iterations =  8.0

     negative rho (up, down):  4.186E-03 0.000E+00

     total cpu time spent up to now is      209.6 secs

     total energy              =   -2216.95044784 Ry
     estimated scf accuracy    <       0.00004533 Ry

     iteration # 31     ecut=    50.00 Ry     beta= 0.70
     Davidson diagonalization with overlap
     ethr =  1.57E-08,  avg # of iterations =  8.0

     negative rho (up, down):  4.117E-03 0.000E+00

     total cpu time spent up to now is      213.3 secs

     total energy              =   -2216.95045442 Ry
     estimated scf accuracy    <       0.00004102 Ry

     iteration # 32     ecut=    50.00 Ry     beta= 0.70
     Davidson diagonalization with overlap
     ethr =  1.42E-08,  avg # of iterations =  2.0

     negative rho (up, down):  3.881E-03 0.000E+00

     total cpu time spent up to now is      215.3 secs

     total energy              =   -2216.95045447 Ry
     estimated scf accuracy    <       0.00003603 Ry

     iteration # 33     ecut=    50.00 Ry     beta= 0.70
     Davidson diagonalization with overlap
     ethr =  1.25E-08,  avg # of iterations =  2.0

     negative rho (up, down):  3.929E-03 0.000E+00

     total cpu time spent up to now is      218.2 secs

     total energy              =   -2216.95045323 Ry
     estimated scf accuracy    <       0.00006960 Ry

     iteration # 34     ecut=    50.00 Ry     beta= 0.70
     Davidson diagonalization with overlap
     ethr =  1.25E-08,  avg # of iterations =  1.0

     negative rho (up, down):  3.780E-03 0.000E+00

     total cpu time spent up to now is      220.1 secs

     total energy              =   -2216.95045459 Ry
     estimated scf accuracy    <       0.00001389 Ry

     iteration # 35     ecut=    50.00 Ry     beta= 0.70
     Davidson diagonalization with overlap
     ethr =  4.82E-09,  avg # of iterations =  2.0

     negative rho (up, down):  3.165E-03 0.000E+00

     total cpu time spent up to now is      222.5 secs

     End of self-consistent calculation

          k = 0.0000 0.0000 0.0000 ( 19467 PWs)   bands (ev):

   -58.8706 -58.8691 -58.5159 -58.5140 -58.0172 -58.0162 -57.4848 -57.4836
   -56.5816 -56.5800 -55.5243 -55.5219 -35.4110 -35.3988 -35.1938 -35.1906
   -35.0358 -34.9882 -34.9258 -34.9066 -34.8159 -34.8156 -34.8122 -34.7344
   -34.4746 -34.4678 -34.3637 -34.3331 -34.2180 -34.2157 -33.9239 -33.9107
   -33.8639 -33.8080 -33.6877 -33.6851 -32.9962 -32.9920 -32.9484 -32.9197
   -32.8105 -32.8087 -32.0196 -31.9833 -31.8955 -31.8878 -31.7458 -31.7432
   -20.1576 -19.9740 -19.3985 -19.3600 -19.2171 -19.2022 -18.6012 -18.5306
   -18.2980 -18.2660 -18.0390 -17.8676 -17.8170 -17.7065 -16.9777 -16.9406
   -16.9280 -16.9213 -16.2879 -16.1549 -15.7821 -15.7292 -15.1285 -15.1275
    -7.3123  -7.2871  -6.7718  -6.7021  -6.5940  -6.5833  -6.5225  -6.4776
    -6.0245  -5.8209  -5.7051  -5.6419  -5.5389  -5.4997  -5.4981  -5.4905
    -5.4233  -5.3737  -5.2549  -4.9084  -4.7045  -4.6969  -4.6892  -4.6020
    -4.5327  -4.5193  -4.2035  -4.1588  -4.0844  -4.0603  -4.0303  -3.9949
    -3.9863  -3.9493  -3.7641  -3.6754  -3.5454  -3.3696  -3.0948  -3.0854
    -3.0647  -3.0446  -2.9212  -2.9023  -2.8630  -2.8401  -2.7895  -2.7366
    -2.5340  -2.2467  -2.1976  -2.0071  -1.8850  -1.7557  -1.7313  -1.5971
    -1.5439  -1.4774  -1.4756  -1.4548  -1.0829  -0.8729  -0.6630  -0.6602
    -0.3910  -0.3884  -0.3060  -0.2939  -0.2395  -0.1762  -0.1228  -0.1020
    -0.0807   0.0007   0.0608   0.1138   0.2940   0.4182   0.4967   0.6107
     1.1947   1.2809   1.4597   1.5074   1.6265   1.6902   1.8259   1.9379
     1.9740   2.0086   2.1473   2.2508   2.4108   2.4213   2.4435   2.5189
     2.6582   2.6613   2.6850   2.7992   2.8499

     the Fermi energy is    -0.0805 ev

!    total energy              =   -2216.95044926 Ry
     estimated scf accuracy    <       0.00000732 Ry
     smearing contrib. (-TS)   =      -0.00138937 Ry
     internal energy E=F+TS    =   -2216.94905988 Ry

     The total energy is F=E-TS. E is the sum of the following terms:
     one-electron contribution =  -21044.90471321 Ry
     hartree contribution      =   10561.14520160 Ry
     xc contribution           =    -401.50141521 Ry
     ewald contribution        =    8668.31186694 Ry

     convergence has been achieved in  35 iterations

     negative rho (up, down):  3.165E-03 0.000E+00

     Forces acting on atoms (cartesian axes, Ry/au):

     atom    1 type  1   force =    -0.12078739    0.00000000    0.03271132
     atom    2 type  1   force =    -0.08175299    0.00000000    0.08406057
     atom    3 type  1   force =    -0.06009240    0.00000000    0.06083024
     atom    4 type  1   force =    -0.06001135    0.00000000    0.06100251
     atom    5 type  1   force =    -0.12013795    0.00000000    0.03247554
     atom    6 type  1   force =    -0.08206140    0.00000000    0.08407596
     atom    7 type  1   force =    -0.02395212    0.00000000    0.07614379
     atom    8 type  1   force =    -0.01674822    0.00000000    0.12545223
     atom    9 type  1   force =    -0.00643905    0.00000000    0.09532990
     atom   10 type  1   force =    -0.00638023    0.00000000    0.09521131
     atom   11 type  1   force =    -0.02374745    0.00000000    0.07597794
     atom   12 type  1   force =    -0.01687799    0.00000000    0.12472707
     atom   13 type  2   force =     0.01288142    0.00000000   -0.06330130
     atom   14 type  2   force =     0.00436140    0.00000000   -0.02333978
     atom   15 type  2   force =     0.00410490    0.00000000   -0.02847965
     atom   16 type  2   force =     0.00407385    0.00000000   -0.02849401
     atom   17 type  2   force =     0.01251470    0.00000000   -0.06336441
     atom   18 type  2   force =     0.00431021    0.00000000   -0.02333255
     atom   19 type  2   force =     0.09688083    0.00000000   -0.03764077
     atom   20 type  2   force =     0.10863185    0.00000000   -0.00019676
     atom   21 type  2   force =     0.09681443    0.00000000   -0.01504035
     atom   22 type  2   force =     0.09678529    0.00000000   -0.01500690
     atom   23 type  2   force =     0.09708773    0.00000000   -0.03752924
     atom   24 type  2   force =     0.10839498    0.00000000   -0.00006753
     atom   25 type  2   force =     0.02357736    0.00000000   -0.02917311
     atom   26 type  2   force =     0.02652477    0.00000000   -0.05513305
     atom   27 type  2   force =     0.02705446    0.00000000   -0.01189881
     atom   28 type  2   force =     0.02686145    0.00000000   -0.05504091
     atom   29 type  2   force =     0.02700892    0.00000000   -0.01186408
     atom   30 type  2   force =     0.02368834    0.00000000   -0.02914144
     atom   31 type  2   force =    -0.05191573    0.00000000   -0.08045957
     atom   32 type  2   force =     0.01042103    0.00000000   -0.03854570
     atom   33 type  2   force =    -0.04977704    0.00000000   -0.09114106
     atom   34 type  2   force =    -0.05195044    0.00000000   -0.08027895
     atom   35 type  2   force =     0.01049193    0.00000000   -0.03846749
     atom   36 type  2   force =    -0.04983810    0.00000000   -0.09106095
     The non-local contrib.  to forces
     atom    1 type  1   force =     0.12741737    0.00000000   -0.00789712
     atom    2 type  1   force =     0.10929278    0.00000000    0.08172345
     atom    3 type  1   force =     0.14329631    0.00000000    0.05634948
     atom    4 type  1   force =     0.14329581    0.00000000    0.05639650
     atom    5 type  1   force =     0.12782259    0.00000000   -0.00774665
     atom    6 type  1   force =     0.10905499    0.00000000    0.08179520
     atom    7 type  1   force =    -0.06156731    0.00000000   -0.04953081
     atom    8 type  1   force =    -0.06804247    0.00000000    0.04168801
     atom    9 type  1   force =    -0.10082639    0.00000000   -0.01615375
     atom   10 type  1   force =    -0.10075193    0.00000000   -0.01624627
     atom   11 type  1   force =    -0.06111615    0.00000000   -0.04975090
     atom   12 type  1   force =    -0.06792663    0.00000000    0.04133301
     atom   13 type  2   force =     0.44642999    0.00000000    0.27091518
     atom   14 type  2   force =     0.41907440    0.00000000    0.16938437
     atom   15 type  2   force =     0.50774078    0.00000000    0.21828039
     atom   16 type  2   force =     0.50767802    0.00000000    0.21831361
     atom   17 type  2   force =     0.44598531    0.00000000    0.27132976
     atom   18 type  2   force =     0.41890479    0.00000000    0.16978058
     atom   19 type  2   force =    -0.30415809    0.00000000   -0.51885911
     atom   20 type  2   force =    -0.35580204    0.00000000   -0.90602880
     atom   21 type  2   force =    -0.38951177    0.00000000   -0.45825235
     atom   22 type  2   force =    -0.38941010    0.00000000   -0.45827468
     atom   23 type  2   force =    -0.30400053    0.00000000   -0.51871524
     atom   24 type  2   force =    -0.35627103    0.00000000   -0.90559348
     atom   25 type  2   force =    -0.67317121    0.00000000   -0.25573899
     atom   26 type  2   force =    -0.57786048    0.00000000   -0.19288459
     atom   27 type  2   force =    -0.71135114    0.00000000   -0.22919122
     atom   28 type  2   force =    -0.57756684    0.00000000   -0.19283873
     atom   29 type  2   force =    -0.71135327    0.00000000   -0.22915140
     atom   30 type  2   force =    -0.67301637    0.00000000   -0.25559940
     atom   31 type  2   force =     0.59163272    0.00000000   -0.15762433
     atom   32 type  2   force =     0.17911308    0.00000000   -0.97245693
     atom   33 type  2   force =     0.58685198    0.00000000   -0.15305696
     atom   34 type  2   force =     0.59180759    0.00000000   -0.15761628
     atom   35 type  2   force =     0.17941351    0.00000000   -0.97291707
     atom   36 type  2   force =     0.58706092    0.00000000   -0.15308517
     The ionic contribution  to forces
     atom    1 type  1   force =    -6.07004185   -0.00000000 -150.30316711
     atom    2 type  1   force =     1.88611487   -0.00000000   90.80688317
     atom    3 type  1   force =     2.44431784   -0.00000000  -30.95312359
     atom    4 type  1   force =     2.44460845    0.00000000  -30.95347347
     atom    5 type  1   force =    -6.06491051    0.00000000 -150.30464941
     atom    6 type  1   force =     1.88455667    0.00000000   90.80675999
     atom    7 type  1   force =     2.28460637    0.00000000 -121.56200673
     atom    8 type  1   force =    -1.03884117    0.00000000  120.42215939
     atom    9 type  1   force =    -2.05991074    0.00000000    0.59742679
     atom   10 type  1   force =    -2.05914774    0.00000000    0.59812880
     atom   11 type  1   force =     2.28484589   -0.00000000 -121.56161120
     atom   12 type  1   force =    -1.03944281   -0.00000000  120.42670985
     atom   13 type  2   force =     4.96399579    0.00000000  -61.90025539
     atom   14 type  2   force =     3.92647749    0.00000000   56.58390722
     atom   15 type  2   force =     3.88531927    0.00000000   -2.76047449
     atom   16 type  2   force =     3.88518924    0.00000000   -2.76058477
     atom   17 type  2   force =     4.96244208    0.00000000  -61.90247403
     atom   18 type  2   force =     3.92708448    0.00000000   56.58304982
     atom   19 type  2   force =     4.48571514    0.00000000  -45.68090489
     atom   20 type  2   force =     5.88393410    0.00000000   79.61289254
     atom   21 type  2   force =     5.73914746    0.00000000   15.54124747
     atom   22 type  2   force =     5.73906110   -0.00000000   15.54163967
     atom   23 type  2   force =     4.48598095   -0.00000000  -45.68304890
     atom   24 type  2   force =     5.88354549   -0.00000000   79.61338812
     atom   25 type  2   force =    -3.29122698   -0.00000000  -13.98533041
     atom   26 type  2   force =    -3.77914592   -0.00000000  -71.17264562
     atom   27 type  2   force =    -3.25203120   -0.00000000   46.36610017
     atom   28 type  2   force =    -3.78061637    0.00000000  -71.17191886
     atom   29 type  2   force =    -3.25242907   -0.00000000   46.36580209
     atom   30 type  2   force =    -3.29101935    0.00000000  -13.98547141
     atom   31 type  2   force =    -6.45159990    0.00000000  -28.89109221
     atom   32 type  2   force =    -2.83458730    0.00000000   85.89767774
     atom   33 type  2   force =    -6.72205649   -0.00000000   31.37909662
     atom   34 type  2   force =    -6.45119708   -0.00000000  -28.88943025
     atom   35 type  2   force =    -2.83496656   -0.00000000   85.89842724
     atom   36 type  2   force =    -6.72377160   -0.00000000   31.38036607
     The local contribution  to forces
     atom    1 type  1   force =     5.83298467   -0.00000311  150.36273181
     atom    2 type  1   force =    -2.06550292   -0.00004452  -90.79041162
     atom    3 type  1   force =    -2.63319701   -0.00001547   30.97053562
     atom    4 type  1   force =    -2.63348911   -0.00000395   30.97256094
     atom    5 type  1   force =     5.83318618    0.00000143  150.36416553
     atom    6 type  1   force =    -2.06586377   -0.00001599  -90.79010123
     atom    7 type  1   force =    -2.25846190   -0.00001057  121.69141688
     atom    8 type  1   force =     1.08497722    0.00004835 -120.31987849
     atom    9 type  1   force =     2.14051929   -0.00001694   -0.48188250
     atom   10 type  1   force =     2.14071399   -0.00001557   -0.48348002
     atom   11 type  1   force =    -2.25543465   -0.00000626  121.68928542
     atom   12 type  1   force =     1.08459783    0.00003583 -120.32794867
     atom   13 type  2   force =    -5.39274539    0.00000744   61.56935917
     atom   14 type  2   force =    -4.33464238   -0.00002081  -56.77258656
     atom   15 type  2   force =    -4.38242149    0.00003425    2.51620057
     atom   16 type  2   force =    -4.38186337    0.00002045    2.51613470
     atom   17 type  2   force =    -5.38826819   -0.00000432   61.57097054
     atom   18 type  2   force =    -4.33585434    0.00000219  -56.77293192
     atom   19 type  2   force =    -4.08587521   -0.00000481   46.16015172
     atom   20 type  2   force =    -5.42224330    0.00008300  -78.71007437
     atom   21 type  2   force =    -5.25523797    0.00000565  -15.10123056
     atom   22 type  2   force =    -5.25468007    0.00002228  -15.10196294
     atom   23 type  2   force =    -4.08724144   -0.00000290   46.16039081
     atom   24 type  2   force =    -5.41999014   -0.00003143  -78.71129247
     atom   25 type  2   force =     3.97977751    0.00001878   14.20859072
     atom   26 type  2   force =     4.37796350   -0.00000121   71.30789446
     atom   27 type  2   force =     3.98104736    0.00001303  -46.15113248
     atom   28 type  2   force =     4.37643348    0.00000199   71.30681625
     atom   29 type  2   force =     3.98248524    0.00003298  -46.15046758
     atom   30 type  2   force =     3.97942525    0.00000121   14.20823474
     atom   31 type  2   force =     5.81116429   -0.00000946   28.96729306
     atom   32 type  2   force =     2.66758825    0.00006611  -84.96852367
     atom   33 type  2   force =     6.08887112    0.00004731  -31.31829270
     atom   34 type  2   force =     5.81153047   -0.00000178   28.96443894
     atom   35 type  2   force =     2.66730179    0.00000044  -84.96857669
     atom   36 type  2   force =     6.09048317    0.00000035  -31.31979090
     The core correction contribution to forces
     atom    1 type  1   force =    -0.01368913   -0.00000020   -0.01950297
     atom    2 type  1   force =    -0.01195367   -0.00000229   -0.01364275
     atom    3 type  1   force =    -0.01438620   -0.00000109   -0.01444178
     atom    4 type  1   force =    -0.01438561   -0.00000007   -0.01443521
     atom    5 type  1   force =    -0.01370408   -0.00000009   -0.01954008
     atom    6 type  1   force =    -0.01194879    0.00000106   -0.01364787
     atom    7 type  1   force =     0.00977265   -0.00000028   -0.00301117
     atom    8 type  1   force =     0.00658813    0.00000080   -0.01330904
     atom    9 type  1   force =     0.01321388   -0.00000096   -0.00460156
     atom   10 type  1   force =     0.01321628   -0.00000050   -0.00460465
     atom   11 type  1   force =     0.00974089    0.00000012   -0.00300266
     atom   12 type  1   force =     0.00657837    0.00000001   -0.01330771
     atom   13 type  2   force =    -0.00609122    0.00000002   -0.00331430
     atom   14 type  2   force =    -0.00587974   -0.00000011   -0.00245444
     atom   15 type  2   force =    -0.00677933    0.00000046   -0.00290411
     atom   16 type  2   force =    -0.00677844    0.00000038   -0.00290430
     atom   17 type  2   force =    -0.00608608   -0.00000012   -0.00331869
     atom   18 type  2   force =    -0.00587756    0.00000005   -0.00245809
     atom   19 type  2   force =     0.00156570   -0.00000002    0.00290772
     atom   20 type  2   force =     0.00157756    0.00000060    0.00516575
     atom   21 type  2   force =     0.00205060   -0.00000000    0.00261945
     atom   22 type  2   force =     0.00204955    0.00000021    0.00261934
     atom   23 type  2   force =     0.00156475   -0.00000002    0.00290885
     atom   24 type  2   force =     0.00158225   -0.00000047    0.00515879
     atom   25 type  2   force =     0.00827140    0.00000034    0.00311359
     atom   26 type  2   force =     0.00721394   -0.00000000    0.00258424
     atom   27 type  2   force =     0.00851910    0.00000043    0.00275296
     atom   28 type  2   force =     0.00721284    0.00000007    0.00258406
     atom   29 type  2   force =     0.00851816    0.00000010    0.00275248
     atom   30 type  2   force =     0.00827023    0.00000009    0.00311240
     atom   31 type  2   force =    -0.00355914   -0.00000016    0.00131378
     atom   32 type  2   force =    -0.00132601    0.00000055    0.00639196
     atom   33 type  2   force =    -0.00344328    0.00000042    0.00104005
     atom   34 type  2   force =    -0.00356256   -0.00000006    0.00131263
     atom   35 type  2   force =    -0.00132892   -0.00000019    0.00639386
     atom   36 type  2   force =    -0.00344385   -0.00000009    0.00103996
     The Hubbard contrib.    to forces
     atom    1 type  1   force =     0.00000000    0.00000000    0.00000000
     atom    2 type  1   force =     0.00000000    0.00000000    0.00000000
     atom    3 type  1   force =     0.00000000    0.00000000    0.00000000
     atom    4 type  1   force =     0.00000000    0.00000000    0.00000000
     atom    5 type  1   force =     0.00000000    0.00000000    0.00000000
     atom    6 type  1   force =     0.00000000    0.00000000    0.00000000
     atom    7 type  1   force =     0.00000000    0.00000000    0.00000000
     atom    8 type  1   force =     0.00000000    0.00000000    0.00000000
[...]
     The non-local contrib.  to forces
     atom    1 type  1   force =     0.11135289    0.00000000   -0.07556451
     atom    2 type  1   force =     0.10255735    0.00000000    0.02054425
     atom    3 type  1   force =     0.14127671    0.00000000   -0.16269535
     atom    4 type  1   force =     0.14128104    0.00000000   -0.16265817
     atom    5 type  1   force =     0.11121611    0.00000000   -0.07550186
     atom    6 type  1   force =     0.10263401    0.00000000    0.02024256
     atom    7 type  1   force =    -0.04216028    0.00000000   -0.09754712
     atom    8 type  1   force =    -0.15546540    0.00000000    0.08148008
     atom    9 type  1   force =    -0.13001489    0.00000000    0.07109063
     atom   10 type  1   force =    -0.12999650    0.00000000    0.07111676
     atom   11 type  1   force =    -0.04211028    0.00000000   -0.09764072
     atom   12 type  1   force =    -0.15565261    0.00000000    0.08162534
     atom   13 type  2   force =    -0.50858502    0.00000000    0.92373834
     atom   14 type  2   force =    -0.20749206    0.00000000    0.90158980
     atom   15 type  2   force =     0.00304509    0.00000000    0.56858757
     atom   16 type  2   force =     0.00292419    0.00000000    0.56882033
     atom   17 type  2   force =    -0.50848468    0.00000000    0.92382190
     atom   18 type  2   force =    -0.20764969    0.00000000    0.90169149
     atom   19 type  2   force =    -0.10469376    0.00000000   -0.63241492
     atom   20 type  2   force =    -0.18521982    0.00000000   -0.85033232
     atom   21 type  2   force =    -0.34000734    0.00000000   -0.71495596
     atom   22 type  2   force =    -0.34003319    0.00000000   -0.71480662
     atom   23 type  2   force =    -0.10485600    0.00000000   -0.63262376
     atom   24 type  2   force =    -0.18533663    0.00000000   -0.85049207
     atom   25 type  2   force =    -0.54925552    0.00000000    0.99686820
     atom   26 type  2   force =    -0.53584386    0.00000000    0.93778868
     atom   27 type  2   force =    -0.91068235    0.00000000    0.68908121
     atom   28 type  2   force =    -0.53612031    0.00000000    0.93761427
     atom   29 type  2   force =    -0.91071372    0.00000000    0.68847928
     atom   30 type  2   force =    -0.54918039    0.00000000    0.99694257
     atom   31 type  2   force =     0.34097077    0.00000000   -0.40121282
     atom   32 type  2   force =     0.47403622    0.00000000   -1.00916024
     atom   33 type  2   force =     0.74685945    0.00000000   -0.57741532
     atom   34 type  2   force =     0.34091528    0.00000000   -0.40115661
     atom   35 type  2   force =     0.47391112    0.00000000   -1.00934482
     atom   36 type  2   force =     0.74681241    0.00000000   -0.57736154
     The ionic contribution  to forces
     atom    1 type  1   force =    -6.56678020   -0.00000000 -132.86522831
     atom    2 type  1   force =     0.74252371   -0.00000000   87.14691725
     atom    3 type  1   force =     0.95784935   -0.00000000  -24.10725678
     atom    4 type  1   force =     0.95718058    0.00000000  -24.10962408
     atom    5 type  1   force =    -6.56430999    0.00000000 -132.86214821
     atom    6 type  1   force =     0.74341306    0.00000000   87.15411982
     atom    7 type  1   force =    -2.11500454    0.00000000 -104.63918979
     atom    8 type  1   force =     1.69804577    0.00000000  122.54707929
     atom    9 type  1   force =    -4.22542939    0.00000000    4.81897092
     atom   10 type  1   force =    -4.22337217   -0.00000000    4.81995201
     atom   11 type  1   force =    -2.11484371   -0.00000000 -104.63750622
     atom   12 type  1   force =     1.69939737   -0.00000000  122.54290602
     atom   13 type  2   force =     7.51901264   -0.00000000  -65.23828038
     atom   14 type  2   force =     4.81011341   -0.00000000   48.25898759
     atom   15 type  2   force =     4.99844761   -0.00000000   -3.91604057
     atom   16 type  2   force =     4.99947492    0.00000000   -3.91885782
     atom   17 type  2   force =     7.52058100    0.00000000  -65.24028870
     atom   18 type  2   force =     4.81199064    0.00000000   48.25690259
     atom   19 type  2   force =     3.20069760    0.00000000  -45.65719132
     atom   20 type  2   force =     3.43573784   -0.00000000   74.01243439
     atom   21 type  2   force =     5.20895148    0.00000000   15.78066504
     atom   22 type  2   force =     5.20848318   -0.00000000   15.78151453
     atom   23 type  2   force =     3.20486525   -0.00000000  -45.65626997
     atom   24 type  2   force =     3.42933611   -0.00000000   74.01282959
     atom   25 type  2   force =     0.57346374   -0.00000000  -26.09080289
     atom   26 type  2   force =    -1.88102559   -0.00000000  -76.50826684
     atom   27 type  2   force =    -0.66231469   -0.00000000   34.69282331
     atom   28 type  2   force =    -1.88036136    0.00000000  -76.50819566
     atom   29 type  2   force =    -0.66576013    0.00000000   34.69867730
     atom   30 type  2   force =     0.57427356    0.00000000  -26.09134607
     atom   31 type  2   force =    -5.60779322    0.00000000  -23.34675429
     atom   32 type  2   force =    -5.28430998    0.00000000   82.20785055
     atom   33 type  2   force =    -6.80642305    0.00000000   32.89977303
     atom   34 type  2   force =    -5.60705869   -0.00000000  -23.34725529
     atom   35 type  2   force =    -5.28295300   -0.00000000   82.20819104
     atom   36 type  2   force =    -6.80609911   -0.00000000   32.89990894
     The local contribution  to forces
     atom    1 type  1   force =     6.48076642   -0.00000038  132.93874338
     atom    2 type  1   force =    -0.82421987    0.00000220  -87.14731083
     atom    3 type  1   force =    -1.08742963   -0.00000569   24.26071968
     atom    4 type  1   force =    -1.08680078    0.00000201   24.26292403
     atom    5 type  1   force =     6.47840799    0.00000278  132.93544841
     atom    6 type  1   force =    -0.82581249    0.00000247  -87.15426899
     atom    7 type  1   force =     2.18103913   -0.00000359  104.75700328
     atom    8 type  1   force =    -1.58137125   -0.00001155 -122.61044337
     atom    9 type  1   force =     4.34665003    0.00000231   -4.87004125
     atom   10 type  1   force =     4.34484962   -0.00000235   -4.87105446
     atom   11 type  1   force =     2.18095629   -0.00000632  104.75548465
     atom   12 type  1   force =    -1.58202323    0.00000845 -122.60634720
     atom   13 type  2   force =    -7.04601538   -0.00000020   64.33446891
     atom   14 type  2   force =    -4.62770625   -0.00000098  -49.14485029
     atom   15 type  2   force =    -5.00343758   -0.00000163    3.37731661
     atom   16 type  2   force =    -5.00430765   -0.00000416    3.37993010
     atom   17 type  2   force =    -7.04755402    0.00000240   64.33646965
     atom   18 type  2   force =    -4.62932848   -0.00000373  -49.14279145
     atom   19 type  2   force =    -3.05011423   -0.00000071   46.25809300
     atom   20 type  2   force =    -3.21426995   -0.00000732  -73.15258936
     atom   21 type  2   force =    -4.82299566    0.00000026  -15.06451092
     atom   22 type  2   force =    -4.82245479    0.00000176  -15.06543716
     atom   23 type  2   force =    -3.05391751   -0.00000069   46.25722440
     atom   24 type  2   force =    -3.20766280    0.00000397  -73.15282188
     atom   25 type  2   force =    -0.03261122    0.00000198   25.10695300
     atom   26 type  2   force =     2.40432757   -0.00000127   75.55249512
     atom   27 type  2   force =     1.55866411   -0.00000265  -35.37847960
     atom   28 type  2   force =     2.40389762   -0.00000351   75.55265313
     atom   29 type  2   force =     1.56224212   -0.00000541  -35.38372380
     atom   30 type  2   force =    -0.03347918   -0.00000154   25.10747200
     atom   31 type  2   force =     5.22180509    0.00000651   23.74803385
     atom   32 type  2   force =     4.79987177   -0.00000313  -81.19864949
     atom   33 type  2   force =     6.05668391    0.00000088  -32.33991195
     atom   34 type  2   force =     5.22116601   -0.00000455   23.74838863
     atom   35 type  2   force =     4.79861018    0.00000149  -81.19869254
     atom   36 type  2   force =     6.05658218   -0.00000297  -32.34015119
     The core correction contribution to forces
     atom    1 type  1   force =    -0.01323356   -0.00000005   -0.00881088
     atom    2 type  1   force =    -0.00649519   -0.00000001   -0.01231640
     atom    3 type  1   force =    -0.00953031   -0.00000020    0.00100998
     atom    4 type  1   force =    -0.00953245    0.00000003    0.00100599
     atom    5 type  1   force =    -0.01321852    0.00000006   -0.00881022
     atom    6 type  1   force =    -0.00650396    0.00000012   -0.01229216
     atom    7 type  1   force =    -0.00725070   -0.00000003   -0.00535742
     atom    8 type  1   force =     0.01094117   -0.00000016   -0.01477417
     atom    9 type  1   force =     0.00192675    0.00000012   -0.01856107
     atom   10 type  1   force =     0.00192809   -0.00000004   -0.01855880
     atom   11 type  1   force =    -0.00725693   -0.00000011   -0.00535333
     atom   12 type  1   force =     0.01095381    0.00000012   -0.01478687
     atom   13 type  2   force =     0.00316775   -0.00000003   -0.00912199
     atom   14 type  2   force =     0.00078432   -0.00000005   -0.00903542
     atom   15 type  2   force =    -0.00265329   -0.00000004   -0.00631542
     atom   16 type  2   force =    -0.00265219   -0.00000007   -0.00631727
     atom   17 type  2   force =     0.00316583    0.00000000   -0.00912257
     atom   18 type  2   force =     0.00078493   -0.00000003   -0.00903636
     atom   19 type  2   force =     0.00057672    0.00000000    0.00373926
     atom   20 type  2   force =     0.00109208   -0.00000009    0.00452939
     atom   21 type  2   force =     0.00191530    0.00000000    0.00440340
     atom   22 type  2   force =     0.00191610    0.00000000    0.00440313
     atom   23 type  2   force =     0.00057564   -0.00000003    0.00374245
     atom   24 type  2   force =     0.00109615    0.00000000    0.00452978
     atom   25 type  2   force =     0.00571470    0.00000003   -0.00972612
     atom   26 type  2   force =     0.00588165   -0.00000001   -0.00836302
     atom   27 type  2   force =     0.00965040   -0.00000002   -0.00621074
     atom   28 type  2   force =     0.00588455   -0.00000004   -0.00836114
     atom   29 type  2   force =     0.00965135   -0.00000002   -0.00620436
     atom   30 type  2   force =     0.00571388   -0.00000002   -0.00972704
     atom   31 type  2   force =    -0.00157347    0.00000004    0.00171917
     atom   32 type  2   force =    -0.00253211   -0.00000007    0.00537601
     atom   33 type  2   force =    -0.00505176    0.00000001    0.00249791
     atom   34 type  2   force =    -0.00157288    0.00000000    0.00172075
     atom   35 type  2   force =    -0.00253092   -0.00000001    0.00537690
     atom   36 type  2   force =    -0.00505138   -0.00000002    0.00249721
     The Hubbard contrib.    to forces
     atom    1 type  1   force =     0.00000000    0.00000000    0.00000000
     atom    2 type  1   force =     0.00000000    0.00000000    0.00000000
     atom    3 type  1   force =     0.00000000    0.00000000    0.00000000
     atom    4 type  1   force =     0.00000000    0.00000000    0.00000000
     atom    5 type  1   force =     0.00000000    0.00000000    0.00000000
     atom    6 type  1   force =     0.00000000    0.00000000    0.00000000
     atom    7 type  1   force =     0.00000000    0.00000000    0.00000000
     atom    8 type  1   force =     0.00000000    0.00000000    0.00000000
     atom    9 type  1   force =     0.00000000    0.00000000    0.00000000
     atom   10 type  1   force =     0.00000000    0.00000000    0.00000000
     atom   11 type  1   force =     0.00000000    0.00000000    0.00000000
     atom   12 type  1   force =     0.00000000    0.00000000    0.00000000
     atom   13 type  2   force =     0.00000000    0.00000000    0.00000000
     atom   14 type  2   force =     0.00000000    0.00000000    0.00000000
     atom   15 type  2   force =     0.00000000    0.00000000    0.00000000
     atom   16 type  2   force =     0.00000000    0.00000000    0.00000000
     atom   17 type  2   force =     0.00000000    0.00000000    0.00000000
     atom   18 type  2   force =     0.00000000    0.00000000    0.00000000
     atom   19 type  2   force =     0.00000000    0.00000000    0.00000000
     atom   20 type  2   force =     0.00000000    0.00000000    0.00000000
     atom   21 type  2   force =     0.00000000    0.00000000    0.00000000
     atom   22 type  2   force =     0.00000000    0.00000000    0.00000000
     atom   23 type  2   force =     0.00000000    0.00000000    0.00000000
     atom   24 type  2   force =     0.00000000    0.00000000    0.00000000
     atom   25 type  2   force =     0.00000000    0.00000000    0.00000000
     atom   26 type  2   force =     0.00000000    0.00000000    0.00000000
     atom   27 type  2   force =     0.00000000    0.00000000    0.00000000
     atom   28 type  2   force =     0.00000000    0.00000000    0.00000000
     atom   29 type  2   force =     0.00000000    0.00000000    0.00000000
     atom   30 type  2   force =     0.00000000    0.00000000    0.00000000
     atom   31 type  2   force =     0.00000000    0.00000000    0.00000000
     atom   32 type  2   force =     0.00000000    0.00000000    0.00000000
     atom   33 type  2   force =     0.00000000    0.00000000    0.00000000
     atom   34 type  2   force =     0.00000000    0.00000000    0.00000000
     atom   35 type  2   force =     0.00000000    0.00000000    0.00000000
     atom   36 type  2   force =     0.00000000    0.00000000    0.00000000
     The SCF correction term to forces
     atom    1 type  1   force =     0.00005499   -0.00000015   -0.00070829
     atom    2 type  1   force =    -0.00052352   -0.00000033   -0.00012268
     atom    3 type  1   force =    -0.00012836    0.00000214   -0.00135717
     atom    4 type  1   force =    -0.00008840    0.00000089   -0.00125193
     atom    5 type  1   force =     0.00008768   -0.00000242   -0.00068464
     atom    6 type  1   force =     0.00002411   -0.00000049   -0.00005990
     atom    7 type  1   force =    -0.00005802    0.00000338   -0.00100165
     atom    8 type  1   force =     0.00044339    0.00000695    0.00018820
     atom    9 type  1   force =     0.00015809   -0.00000193   -0.00092276
     atom   10 type  1   force =    -0.00003748    0.00000279   -0.00093789
     atom   11 type  1   force =    -0.00018043    0.00000272   -0.00100926
     atom   12 type  1   force =     0.00006995   -0.00000768    0.00008224
     atom   13 type  2   force =    -0.00004562   -0.00000075   -0.00037684
     atom   14 type  2   force =     0.00015151   -0.00000221   -0.00000749
     atom   15 type  2   force =     0.00010824    0.00000051   -0.00056682
     atom   16 type  2   force =     0.00005867   -0.00000055   -0.00055910
     atom   17 type  2   force =    -0.00011931   -0.00000211   -0.00036496
     atom   18 type  2   force =     0.00001829    0.00000272    0.00004355
     atom   19 type  2   force =     0.00005632    0.00000024   -0.00060549
     atom   20 type  2   force =     0.00006666    0.00000324    0.00013212
     atom   21 type  2   force =    -0.00003581   -0.00000136   -0.00034070
     atom   22 type  2   force =    -0.00013040   -0.00000080   -0.00044941
     atom   23 type  2   force =    -0.00002954   -0.00000024   -0.00058628
     atom   24 type  2   force =    -0.00023162   -0.00000245    0.00013659
     atom   25 type  2   force =     0.00002913   -0.00000060   -0.00066478
     atom   26 type  2   force =    -0.00002548    0.00000096   -0.00015937
     atom   27 type  2   force =     0.00007380    0.00000143   -0.00006714
     atom   28 type  2   force =    -0.00001114    0.00000212   -0.00020197
     atom   29 type  2   force =    -0.00006021    0.00000209   -0.00013899
     atom   30 type  2   force =     0.00000622    0.00000004   -0.00068707
     atom   31 type  2   force =     0.00000091   -0.00000158   -0.00070194
     atom   32 type  2   force =     0.00005899    0.00000160    0.00031477
     atom   33 type  2   force =     0.00011902   -0.00000074   -0.00019862
     atom   34 type  2   force =    -0.00005481    0.00000280   -0.00074389
     atom   35 type  2   force =     0.00008836    0.00000016    0.00011728
     atom   36 type  2   force =    -0.00009899    0.00000152   -0.00014522

     Total force =     0.170779     Total SCF correction =     0.003626
     Energy error            =      2.8E-02 Ry
     Gradient error          =      4.8E-02 Ry/Bohr

     number of scf cycles    =  14
     number of bfgs steps    =  13

     energy             old  =   -2217.8013884480 Ry
     energy             new  =   -2217.8291042166 Ry

     CASE: energy            _new < energy            _old

     new trust radius        =       0.0688959676 bohr
     new conv_thr            =       0.0000009567 Ry


ATOMIC_POSITIONS (angstrom)
Ti            0.0585309956        0.0000000000       -0.0340113849
Ti            7.3585791770        0.0000000000        7.4144033810
Ti            8.7697027942        0.0000000000        3.6400264694
Ti            3.6500229722        1.8925000000        3.6399922597
Ti            5.1782994169        1.8925000000       -0.0338164888
Ti            2.2389445916        1.8925000000        7.4145056946
Ti            2.0600841133        1.8925000000        1.0049775822
Ti            9.6631170503        1.8925000000        8.6794715731
Ti            0.8650715760        1.8925000000        4.7210480911
Ti            5.9847079878        0.0000000000        4.7209776899
Ti            7.1797782682        0.0000000000        1.0050294599
Ti            4.5434244646        0.0000000000        8.6793873032
O             1.9700287035        0.0000000000        0.2209357146
O             9.3424526301        0.0000000000        7.8892246480
O             0.2773333123        0.0000000000        4.2088258171
O             5.3970042469        1.8925000000        4.2086685743
O             7.0896945331        1.8925000000        0.2208788709
O             4.2226587093        1.8925000000        7.8890663694
O             3.8624223746        1.8925000000        1.1641881652
O             1.2701735925        1.8925000000        8.8646724283
O             2.6385845211        1.8925000000        5.1336891784
O             7.7582474498        0.0000000000        5.1337971114
O             8.9820767450        0.0000000000        1.1643652386
O             6.3899659210        0.0000000000        8.8645643928
O             4.2086906869        0.0000000000        3.0203013416
O             5.6834099212        0.0000000000       -0.6196871352
O             3.0232889937        0.0000000000        7.1435255487
O             0.5639173453        1.8925000000       -0.6197428562
O             8.1431494091        1.8925000000        7.1439832462
O             9.3283394017        1.8925000000        3.0202566640
O             1.9277632066        1.8925000000        2.7402504823
O             8.9139722015        1.8925000000       10.1841861503
O             0.5286686408        1.8925000000        6.3918659657
O             7.0474321615        0.0000000000        2.7404004888
O             3.7944047923        0.0000000000       10.1840929082
O             5.6483080926        0.0000000000        6.3918190564



     Writing config-only to output data dir ./outdir/tio2_slab.save/
     NEW-OLD atomic charge density approx. for the potential

     Check: negative core charge=   -0.000001

     negative rho (up, down):  3.430E-03 0.000E+00

     total cpu time spent up to now is     1616.2 secs

     per-process dynamical memory:    47.6 Mb
