      39
 i =       30, E =      -396.9226592400
 Be         0.0000000259        0.0000000399        4.1345327998
 Be         0.0000000259        0.0000000399       16.6135687468
 Be         2.4487748803        1.4138008612       10.9329850342
 Be         2.4487748803        1.4138008612        3.0160070315
 Be         0.0000000259        2.8276016826       17.7318252471
 Be         0.0000000259        2.8276016826        9.8151553257
  B         0.0000000259        0.0000000399       10.3869247986
  B         2.4487748803        1.4138008612       17.1863504683
  B         0.0000000259        2.8276016826        3.5885292319
  O         1.4632024055        0.0765979423       10.0134975292
  O        -0.7976941080        1.2287093729       10.0140538249
  O         1.7835363244        2.9364634520       10.0143810156
  O         3.9113620768        1.4900727693       16.8135344083
  O         1.6516496051        2.6420534511       16.8144939749
  O         1.7835371254        0.1095829324       16.8143520221
  O         1.4620823758        2.9035260236        3.2162564926
  O        -0.7969250903        4.0559300115        3.2159285035
  O        -0.6652883431        1.5228640568        3.2153637639
  F         0.0000000259        0.0000000399        5.5863573168
  F         2.4487748803        1.4138008612       12.3854494155
  F         0.0000000259        2.8276016826       19.1844746193
 Cl         0.0000000259        0.0000000399       14.5546536092
 Cl         2.4487748803        1.4138008612        0.9566569630
 Cl         0.0000000259        2.8276016826        7.7556104887
  H         0.9594328000        2.2893154836       12.9803707013
  H        -0.9459370465        2.2658280565       12.9803061472
  H        -0.0135116807        3.9281338704       12.9794864607
  H         3.4084532439        0.8753465733        6.1809479568
  H         1.5027848523        0.8520045526        6.1813250567
  H         2.4352313222        2.5138033815        6.1816072462
  H         2.4487748803        1.4138008612        7.1808019469
  H         0.0000000259        2.8276016826       13.9797660297
  H         0.0000000259        0.0000000399        0.3818399375
  H        -1.4894464152        3.7031798421       19.7796744225
  H         1.5030040556        3.6797120543       19.7796198530
  H        -0.0135521288        1.0999451092       19.7794546556
  N         2.4487748803        1.4138008612        6.3507476012
  N         0.0000000259        2.8276016826       13.1497007451
  N         0.0000000259        0.0000000399       -0.4482286340
      39
 i =       31, E =      -400.7808918007
 Be         0.0000000254        0.0000000390        4.1739943169
 Be         0.0000000254        0.0000000390       16.7871971528
 Be         2.3983581934        1.3846927729       11.0456794358
 Be         2.3983581934        1.3846927729        3.0403080057
 Be         0.0000000254        2.7693855068       17.9183974150
 Be         0.0000000254        2.7693855068        9.9135314777
  B         0.0000000254        0.0000000390       10.4914653544
  B         2.3983581934        1.3846927729       17.3652801152
  B         0.0000000254        2.7693855068        3.6188613229
  O         1.4190237593        0.0195903629       10.1508088436
  O        -0.7261187266        1.2189145732       10.1516793807
  O         1.7058031785        2.9161254723       10.1522861448
  O         3.8165273775        1.4037752435       17.0259025399
  O         1.6731496893        2.6030714144       17.0288663431
  O         1.7057772613        0.1477800864       17.0277489033
  O         1.4174254118        2.7880012668        3.2798808771
  O        -0.7250331748        3.9877068051        3.2787237298
  O        -0.6925619408        1.5317317369        3.2779324431
  F         0.0000000254        0.0000000390        5.6062749580
  F         2.3983581934        1.3846927729       12.4799898154
  F         0.0000000254        2.7693855068       19.3534363837
 Cl         0.0000000254        0.0000000390       14.6789901540
 Cl         2.3983581934        1.3846927729        0.9323908302
 Cl         0.0000000254        2.7693855068        7.8056995472
  H         0.9220866191        2.2483194890       13.0877448691
  H        -0.9123736128        2.2312971768       13.0879071820
  H        -0.0099812100        3.8293556769       13.0869579480
  H         3.3209357689        0.8634684090        6.2144240781
  H         1.4859217932        0.8465524184        6.2150105453
  H         2.3885833411        2.4437115221        6.2153728991
  H         2.3983581934        1.3846927729        7.5182138426
  H         0.0000000254        2.7693855068       14.3915048588
  H         0.0000000254        0.0000000390        0.6449306573
  H        -1.4764673124        3.6330824982       19.9620281998
  H         1.4862278955        3.6161940747       19.9617527501
  H        -0.0097678690        1.0589328850       19.9612447839
  N         2.3983581934        1.3846927729        6.5644680265
  N         0.0000000254        2.7693855068       13.4377359758
  N         0.0000000254        0.0000000390       -0.3088427933
      39
 i =       32, E =      -401.4719609542
 Be         0.0000000254        0.0000000390        4.1699899770
 Be         0.0000000254        0.0000000390       16.7848945430
 Be         2.3968612643        1.3838285205       11.0416436702
 Be         2.3968612643        1.3838285205        3.0413778606
 Be         0.0000000254        2.7676570020       17.9134140987
 Be         0.0000000254        2.7676570020        9.9131191440
  B         0.0000000254        0.0000000390       10.4879644020
  B         2.3968612643        1.3838285205       17.3597370404
  B         0.0000000254        2.7676570020        3.6162447827
  O         1.4167097741        0.0163347018       10.4063650301
  O        -0.7224802079        1.2187374578       10.4061131535
  O         1.7026389508        2.9164355376       10.4059447100
  O         3.8135625925        1.4001418488       17.2776571428
  O         1.6744097284        2.6025666517       17.2773715437
  O         1.7026380896        0.1487616844       17.2775965468
  O         1.4167316434        2.7839944626        3.5343176696
  O        -0.7225271091        3.9864167531        3.5344786244
  O        -0.6942106742        1.5325568768        3.5345675316
  F         0.0000000254        0.0000000390        5.6049645824
  F         2.3968612643        1.3838285205       12.4767436522
  F         0.0000000254        2.7676570020       19.3484870315
 Cl         0.0000000254        0.0000000390       14.6773382891
 Cl         2.3968612643        1.3838285205        0.9338408365
 Cl         0.0000000254        2.7676570020        7.8055909112
  H         0.9208095561        2.2473385841       13.0797538147
  H        -0.9110063121        2.2303760139       13.0797831423
  H        -0.0097983374        3.8252491083       13.0798620054
  H         3.3176467437        0.8635234572        6.2081118021
  H         1.4858749178        0.8465609779        6.2080900042
  H         2.3870670575        2.4414033855        6.2080574877
  H         2.3968612643        1.3838285205        7.5141619325
  H         0.0000000254        2.7676570020       14.3859086432
  H         0.0000000254        0.0000000390        0.6424136461
  H        -1.4760678775        3.6311753127       19.9515192751
  H         1.4858493414        3.6142015581       19.9514942765
  H        -0.0097958805        1.0576084214       19.9514881315
  N         2.3968612643        1.3838285205        6.5662902546
  N         0.0000000254        2.7676570020       13.4379625377
  N         0.0000000254        0.0000000390       -0.3055337802
