 DBCSR| CPU Multiplication driver                                           XSMM (U)
 DBCSR| Multrec recursion limit                                              512 (U)
 DBCSR| Multiplication stack size                                           1000 (D)
 DBCSR| Maximum elements for images                                    UNLIMITED (U)
 DBCSR| Multiplicative factor virtual images                                   1 (U)
 DBCSR| Use multiplication densification                                       T (D)
 DBCSR| Multiplication size stacks                                             3 (U)
 DBCSR| Use memory pool for CPU allocation                                     F (U)
 DBCSR| Number of 3D layers                                               SINGLE (U)
 DBCSR| Use MPI memory allocation                                              F (U)
 DBCSR| Use RMA algorithm                                                      F (U)
 DBCSR| Use Communication thread                                               T (U)
 DBCSR| Communication thread load                                             83 (D)
 DBCSR| MPI: My process id                                                     0
 DBCSR| MPI: Number of processes                                              90
 DBCSR| OMP: Current number of threads                                         2
 DBCSR| OMP: Max number of threads                                             2
 DBCSR| Split modifier for TAS multiplication algorithm                  1.0E+00 (U)


  **** **** ******  **  PROGRAM STARTED AT               2024-10-09 19:55:52.278
 ***** ** ***  *** **   PROGRAM STARTED ON                          9127eb36a82b
 **    ****   ******    PROGRAM STARTED BY                             <unknown>
 ***** **    ** ** **   PROGRAM PROCESS ID                                   586
  **** **  *******  **  PROGRAM STARTED IN                                  /mnt

 CP2K| version string:                                       CP2K version 2024.3
 CP2K| source code revision number:                                  git:6712648
 CP2K| cp2kflags: omp libint fftw3 libxc libgrpp pexsi elpa parallel scalapack c
 CP2K|            osma quip xsmm plumed2 spglib libdftd4 sirius libvori libbqb l
 CP2K|            libtorch libvdwxc hdf5
 CP2K| is freely available from                            https://www.cp2k.org/
 CP2K| Program compiled at                          Mon Sep  9 14:39:12 UTC 2024
 CP2K| Program compiled on                                          5c005b387e2b
 CP2K| Program compiled for                                                local
 CP2K| Data directory path                                        /opt/cp2k/data
 CP2K| Input file name                                           graphene_kp.inp

 GLOBAL| Force Environment number                                              1
 GLOBAL| Basis set file name                                           BASIS_pob
 GLOBAL| Potential file name                                           POTENTIAL
 GLOBAL| MM Potential file name                                     MM_POTENTIAL
 GLOBAL| Coordinate file name                                      __STD_INPUT__
 GLOBAL| Method name                                                        CP2K
 GLOBAL| Project name                                                graphene_kp
 GLOBAL| Run type                                                         ENERGY
 GLOBAL| FFT library                                                       FFTW3
 GLOBAL| Diagonalization library                                            ELPA
 GLOBAL| DGEMM library                                                      BLAS
 GLOBAL| Minimum number of eigenvectors for ELPA usage                        16
 GLOBAL| Orthonormality check for eigenvectors                          DISABLED
 GLOBAL| Matrix multiplication library                                     COSMA
 GLOBAL| All-to-all communication in single precision                          F
 GLOBAL| FFTs using library dependent lengths                                  F
 GLOBAL| Grid backend                                                       AUTO
 GLOBAL| Global print level                                               MEDIUM
 GLOBAL| MPI I/O enabled                                                       T
 GLOBAL| Total number of message passing processes                            90
 GLOBAL| Number of threads for this process                                    2
 GLOBAL| This output is from process                                           0
 GLOBAL| Stack size for threads created by OpenMP (OMP_STACKSIZE)            16M
 GLOBAL| CPU model name                                            AMD EPYC 9B14
 GLOBAL| CPUID                                                              1003
 GLOBAL| Compiled for CPUID                                                    0

 *** HINT in environment.F:921 :: The compiler target flags (generic) used ***
 *** to build this binary cannot exploit all extensions of this CPU model  ***
 *** (x86_avx512). Consider compiler target flags as part of FCFLAGS and   ***
 *** CFLAGS (ARCH file).                                                   ***


 MEMORY| system memory details [Kb]
 MEMORY|                        rank 0           min           max       average
 MEMORY| MemTotal            365017236     365017236     365017236     365017236
 MEMORY| MemFree             348250504     348250504     348250504     348250504
 MEMORY| Buffers                  7756          7756          7756          7756
 MEMORY| Cached                 510696        510696        510696        510696
 MEMORY| Slab                   779184        779184        779184        779184
 MEMORY| SReclaimable            88012         88012         88012         88012
 MEMORY| MemLikelyFree       348856968     348856968     348856968     348856968


 *** Fundamental physical constants (SI units) ***

 *** Literature: B. J. Mohr and B. N. Taylor,
 ***             CODATA recommended values of the fundamental physical
 ***             constants: 2006, Web Version 5.1
 ***             http://physics.nist.gov/constants

 Speed of light in vacuum [m/s]                             2.99792458000000E+08
 Magnetic constant or permeability of vacuum [N/A**2]       1.25663706143592E-06
 Electric constant or permittivity of vacuum [F/m]          8.85418781762039E-12
 Planck constant (h) [J*s]                                  6.62606896000000E-34
 Planck constant (h-bar) [J*s]                              1.05457162825177E-34
 Elementary charge [C]                                      1.60217648700000E-19
 Electron mass [kg]                                         9.10938215000000E-31
 Electron g factor [ ]                                     -2.00231930436220E+00
 Proton mass [kg]                                           1.67262163700000E-27
 Fine-structure constant                                    7.29735253760000E-03
 Rydberg constant [1/m]                                     1.09737315685270E+07
 Avogadro constant [1/mol]                                  6.02214179000000E+23
 Boltzmann constant [J/K]                                   1.38065040000000E-23
 Atomic mass unit [kg]                                      1.66053878200000E-27
 Bohr radius [m]                                            5.29177208590000E-11

 *** Conversion factors ***

 [u] -> [a.u.]                                              1.82288848426455E+03
 [Angstrom] -> [Bohr] = [a.u.]                              1.88972613288564E+00
 [a.u.] = [Bohr] -> [Angstrom]                              5.29177208590000E-01
 [a.u.] -> [s]                                              2.41888432650478E-17
 [a.u.] -> [fs]                                             2.41888432650478E-02
 [a.u.] -> [J]                                              4.35974393937059E-18
 [a.u.] -> [N]                                              8.23872205491840E-08
 [a.u.] -> [K]                                              3.15774647902944E+05
 [a.u.] -> [kJ/mol]                                         2.62549961709828E+03
 [a.u.] -> [kcal/mol]                                       6.27509468713739E+02
 [a.u.] -> [Pa]                                             2.94210107994716E+13
 [a.u.] -> [bar]                                            2.94210107994716E+08
 [a.u.] -> [atm]                                            2.90362800883016E+08
 [a.u.] -> [eV]                                             2.72113838565563E+01
 [a.u.] -> [Hz]                                             6.57968392072181E+15
 [a.u.] -> [1/cm] (wave numbers)                            2.19474631370540E+05
 [a.u./Bohr**2] -> [1/cm]                                   5.14048714338585E+03
 

 CELL_TOP| Volume [angstrom^3]:                                       104.816787
 CELL_TOP| Vector a [angstrom     2.460     0.000     0.000   |a| =     2.460000
 CELL_TOP| Vector b [angstrom    -1.230     2.130     0.000   |b| =     2.460000
 CELL_TOP| Vector c [angstrom     0.000     0.000    20.000   |c| =    20.000000
 CELL_TOP| Angle (b,c), alpha [degree]:                                90.000000
 CELL_TOP| Angle (a,c), beta  [degree]:                                90.000000
 CELL_TOP| Angle (a,b), gamma [degree]:                               120.000000
 CELL_TOP| Numerically orthorhombic:                                          NO
 CELL_TOP| Periodicity                                                       XYZ

 GENERATE|  Preliminary Number of Bonds generated:                             0
 GENERATE|  Achieved consistency in connectivity generation.

 CELL| Volume [angstrom^3]:                                           104.816787
 CELL| Vector a [angstrom]:       2.460     0.000     0.000   |a| =     2.460000
 CELL| Vector b [angstrom]:      -1.230     2.130     0.000   |b| =     2.460000
 CELL| Vector c [angstrom]:       0.000     0.000    20.000   |c| =    20.000000
 CELL| Angle (b,c), alpha [degree]:                                    90.000000
 CELL| Angle (a,c), beta  [degree]:                                    90.000000
 CELL| Angle (a,b), gamma [degree]:                                   120.000000
 CELL| Numerically orthorhombic:                                              NO
 CELL| Periodicity                                                           XYZ

 CELL_REF| Volume [angstrom^3]:                                       104.816787
 CELL_REF| Vector a [angstrom     2.460     0.000     0.000   |a| =     2.460000
 CELL_REF| Vector b [angstrom    -1.230     2.130     0.000   |b| =     2.460000
 CELL_REF| Vector c [angstrom     0.000     0.000    20.000   |c| =    20.000000
 CELL_REF| Angle (b,c), alpha [degree]:                                90.000000
 CELL_REF| Angle (a,c), beta  [degree]:                                90.000000
 CELL_REF| Angle (a,b), gamma [degree]:                               120.000000
 CELL_REF| Numerically orthorhombic:                                          NO
 CELL_REF| Periodicity                                                       XYZ

 *******************************************************************************
                                    Kpoints
 *******************************************************************************
 BRILLOUIN| K-point scheme                                        Monkhorst-Pack
 BRILLOUIN| K-Point grid                                            19   19    1
 BRILLOUIN| Accuracy in Symmetry determination                      0.100000E-05
 BRILLOUIN| K-Point point group symmetrization                               OFF
 BRILLOUIN| Wavefunction type                                            COMPLEX
 BRILLOUIN| List of Kpoints [2 Pi/Bohr]                                      181
 BRILLOUIN| Number           Weight            X              Y              Z
 BRILLOUIN|     1           0.00554       -0.47368       -0.47368        0.00000
 BRILLOUIN|     2           0.00554       -0.47368       -0.42105        0.00000
 BRILLOUIN|     3           0.00554       -0.47368       -0.36842        0.00000
 BRILLOUIN|     4           0.00554       -0.47368       -0.31579        0.00000
 BRILLOUIN|     5           0.00554       -0.47368       -0.26316        0.00000
 BRILLOUIN|     6           0.00554       -0.47368       -0.21053        0.00000
 BRILLOUIN|     7           0.00554       -0.47368       -0.15789        0.00000
 BRILLOUIN|     8           0.00554       -0.47368       -0.10526        0.00000
 BRILLOUIN|     9           0.00554       -0.47368       -0.05263        0.00000
 BRILLOUIN|    10           0.00554       -0.47368        0.00000        0.00000
 BRILLOUIN|    11           0.00554       -0.47368        0.05263        0.00000
 BRILLOUIN|    12           0.00554       -0.47368        0.10526        0.00000
 BRILLOUIN|    13           0.00554       -0.47368        0.15789        0.00000
 BRILLOUIN|    14           0.00554       -0.47368        0.21053        0.00000
 BRILLOUIN|    15           0.00554       -0.47368        0.26316        0.00000
 BRILLOUIN|    16           0.00554       -0.47368        0.31579        0.00000
 BRILLOUIN|    17           0.00554       -0.47368        0.36842        0.00000
 BRILLOUIN|    18           0.00554       -0.47368        0.42105        0.00000
 BRILLOUIN|    19           0.00554       -0.47368        0.47368        0.00000
 BRILLOUIN|    20           0.00554       -0.42105       -0.47368        0.00000
 BRILLOUIN|    21           0.00554       -0.42105       -0.42105        0.00000
 BRILLOUIN|    22           0.00554       -0.42105       -0.36842        0.00000
 BRILLOUIN|    23           0.00554       -0.42105       -0.31579        0.00000
 BRILLOUIN|    24           0.00554       -0.42105       -0.26316        0.00000
 BRILLOUIN|    25           0.00554       -0.42105       -0.21053        0.00000
 BRILLOUIN|    26           0.00554       -0.42105       -0.15789        0.00000
 BRILLOUIN|    27           0.00554       -0.42105       -0.10526        0.00000
 BRILLOUIN|    28           0.00554       -0.42105       -0.05263        0.00000
 BRILLOUIN|    29           0.00554       -0.42105        0.00000        0.00000
 BRILLOUIN|    30           0.00554       -0.42105        0.05263        0.00000
 BRILLOUIN|    31           0.00554       -0.42105        0.10526        0.00000
 BRILLOUIN|    32           0.00554       -0.42105        0.15789        0.00000
 BRILLOUIN|    33           0.00554       -0.42105        0.21053        0.00000
 BRILLOUIN|    34           0.00554       -0.42105        0.26316        0.00000
 BRILLOUIN|    35           0.00554       -0.42105        0.31579        0.00000
 BRILLOUIN|    36           0.00554       -0.42105        0.36842        0.00000
 BRILLOUIN|    37           0.00554       -0.42105        0.42105        0.00000
 BRILLOUIN|    38           0.00554       -0.42105        0.47368        0.00000
 BRILLOUIN|    39           0.00554       -0.36842       -0.47368        0.00000
 BRILLOUIN|    40           0.00554       -0.36842       -0.42105        0.00000
 BRILLOUIN|    41           0.00554       -0.36842       -0.36842        0.00000
 BRILLOUIN|    42           0.00554       -0.36842       -0.31579        0.00000
 BRILLOUIN|    43           0.00554       -0.36842       -0.26316        0.00000
 BRILLOUIN|    44           0.00554       -0.36842       -0.21053        0.00000
 BRILLOUIN|    45           0.00554       -0.36842       -0.15789        0.00000
 BRILLOUIN|    46           0.00554       -0.36842       -0.10526        0.00000
 BRILLOUIN|    47           0.00554       -0.36842       -0.05263        0.00000
 BRILLOUIN|    48           0.00554       -0.36842        0.00000        0.00000
 BRILLOUIN|    49           0.00554       -0.36842        0.05263        0.00000
 BRILLOUIN|    50           0.00554       -0.36842        0.10526        0.00000
 BRILLOUIN|    51           0.00554       -0.36842        0.15789        0.00000
 BRILLOUIN|    52           0.00554       -0.36842        0.21053        0.00000
 BRILLOUIN|    53           0.00554       -0.36842        0.26316        0.00000
 BRILLOUIN|    54           0.00554       -0.36842        0.31579        0.00000
 BRILLOUIN|    55           0.00554       -0.36842        0.36842        0.00000
 BRILLOUIN|    56           0.00554       -0.36842        0.42105        0.00000
 BRILLOUIN|    57           0.00554       -0.36842        0.47368        0.00000
 BRILLOUIN|    58           0.00554       -0.31579       -0.47368        0.00000
 BRILLOUIN|    59           0.00554       -0.31579       -0.42105        0.00000
 BRILLOUIN|    60           0.00554       -0.31579       -0.36842        0.00000
 BRILLOUIN|    61           0.00554       -0.31579       -0.31579        0.00000
 BRILLOUIN|    62           0.00554       -0.31579       -0.26316        0.00000
 BRILLOUIN|    63           0.00554       -0.31579       -0.21053        0.00000
 BRILLOUIN|    64           0.00554       -0.31579       -0.15789        0.00000
 BRILLOUIN|    65           0.00554       -0.31579       -0.10526        0.00000
 BRILLOUIN|    66           0.00554       -0.31579       -0.05263        0.00000
 BRILLOUIN|    67           0.00554       -0.31579        0.00000        0.00000
 BRILLOUIN|    68           0.00554       -0.31579        0.05263        0.00000
 BRILLOUIN|    69           0.00554       -0.31579        0.10526        0.00000
 BRILLOUIN|    70           0.00554       -0.31579        0.15789        0.00000
 BRILLOUIN|    71           0.00554       -0.31579        0.21053        0.00000
 BRILLOUIN|    72           0.00554       -0.31579        0.26316        0.00000
 BRILLOUIN|    73           0.00554       -0.31579        0.31579        0.00000
 BRILLOUIN|    74           0.00554       -0.31579        0.36842        0.00000
 BRILLOUIN|    75           0.00554       -0.31579        0.42105        0.00000
 BRILLOUIN|    76           0.00554       -0.31579        0.47368        0.00000
 BRILLOUIN|    77           0.00554       -0.26316       -0.47368        0.00000
 BRILLOUIN|    78           0.00554       -0.26316       -0.42105        0.00000
 BRILLOUIN|    79           0.00554       -0.26316       -0.36842        0.00000
 BRILLOUIN|    80           0.00554       -0.26316       -0.31579        0.00000
 BRILLOUIN|    81           0.00554       -0.26316       -0.26316        0.00000
 BRILLOUIN|    82           0.00554       -0.26316       -0.21053        0.00000
 BRILLOUIN|    83           0.00554       -0.26316       -0.15789        0.00000
 BRILLOUIN|    84           0.00554       -0.26316       -0.10526        0.00000
 BRILLOUIN|    85           0.00554       -0.26316       -0.05263        0.00000
 BRILLOUIN|    86           0.00554       -0.26316        0.00000        0.00000
 BRILLOUIN|    87           0.00554       -0.26316        0.05263        0.00000
 BRILLOUIN|    88           0.00554       -0.26316        0.10526        0.00000
 BRILLOUIN|    89           0.00554       -0.26316        0.15789        0.00000
 BRILLOUIN|    90           0.00554       -0.26316        0.21053        0.00000
 BRILLOUIN|    91           0.00554       -0.26316        0.26316        0.00000
 BRILLOUIN|    92           0.00554       -0.26316        0.31579        0.00000
 BRILLOUIN|    93           0.00554       -0.26316        0.36842        0.00000
 BRILLOUIN|    94           0.00554       -0.26316        0.42105        0.00000
 BRILLOUIN|    95           0.00554       -0.26316        0.47368        0.00000
 BRILLOUIN|    96           0.00554       -0.21053       -0.47368        0.00000
 BRILLOUIN|    97           0.00554       -0.21053       -0.42105        0.00000
 BRILLOUIN|    98           0.00554       -0.21053       -0.36842        0.00000
 BRILLOUIN|    99           0.00554       -0.21053       -0.31579        0.00000
 BRILLOUIN|   100           0.00554       -0.21053       -0.26316        0.00000
 BRILLOUIN|   101           0.00554       -0.21053       -0.21053        0.00000
 BRILLOUIN|   102           0.00554       -0.21053       -0.15789        0.00000
 BRILLOUIN|   103           0.00554       -0.21053       -0.10526        0.00000
 BRILLOUIN|   104           0.00554       -0.21053       -0.05263        0.00000
 BRILLOUIN|   105           0.00554       -0.21053        0.00000        0.00000
 BRILLOUIN|   106           0.00554       -0.21053        0.05263        0.00000
 BRILLOUIN|   107           0.00554       -0.21053        0.10526        0.00000
 BRILLOUIN|   108           0.00554       -0.21053        0.15789        0.00000
 BRILLOUIN|   109           0.00554       -0.21053        0.21053        0.00000
 BRILLOUIN|   110           0.00554       -0.21053        0.26316        0.00000
 BRILLOUIN|   111           0.00554       -0.21053        0.31579        0.00000
 BRILLOUIN|   112           0.00554       -0.21053        0.36842        0.00000
 BRILLOUIN|   113           0.00554       -0.21053        0.42105        0.00000
 BRILLOUIN|   114           0.00554       -0.21053        0.47368        0.00000
 BRILLOUIN|   115           0.00554       -0.15789       -0.47368        0.00000
 BRILLOUIN|   116           0.00554       -0.15789       -0.42105        0.00000
 BRILLOUIN|   117           0.00554       -0.15789       -0.36842        0.00000
 BRILLOUIN|   118           0.00554       -0.15789       -0.31579        0.00000
 BRILLOUIN|   119           0.00554       -0.15789       -0.26316        0.00000
 BRILLOUIN|   120           0.00554       -0.15789       -0.21053        0.00000
 BRILLOUIN|   121           0.00554       -0.15789       -0.15789        0.00000
 BRILLOUIN|   122           0.00554       -0.15789       -0.10526        0.00000
 BRILLOUIN|   123           0.00554       -0.15789       -0.05263        0.00000
 BRILLOUIN|   124           0.00554       -0.15789        0.00000        0.00000
 BRILLOUIN|   125           0.00554       -0.15789        0.05263        0.00000
 BRILLOUIN|   126           0.00554       -0.15789        0.10526        0.00000
 BRILLOUIN|   127           0.00554       -0.15789        0.15789        0.00000
 BRILLOUIN|   128           0.00554       -0.15789        0.21053        0.00000
 BRILLOUIN|   129           0.00554       -0.15789        0.26316        0.00000
 BRILLOUIN|   130           0.00554       -0.15789        0.31579        0.00000
 BRILLOUIN|   131           0.00554       -0.15789        0.36842        0.00000
 BRILLOUIN|   132           0.00554       -0.15789        0.42105        0.00000
 BRILLOUIN|   133           0.00554       -0.15789        0.47368        0.00000
 BRILLOUIN|   134           0.00554       -0.10526       -0.47368        0.00000
 BRILLOUIN|   135           0.00554       -0.10526       -0.42105        0.00000
 BRILLOUIN|   136           0.00554       -0.10526       -0.36842        0.00000
 BRILLOUIN|   137           0.00554       -0.10526       -0.31579        0.00000
 BRILLOUIN|   138           0.00554       -0.10526       -0.26316        0.00000
 BRILLOUIN|   139           0.00554       -0.10526       -0.21053        0.00000
 BRILLOUIN|   140           0.00554       -0.10526       -0.15789        0.00000
 BRILLOUIN|   141           0.00554       -0.10526       -0.10526        0.00000
 BRILLOUIN|   142           0.00554       -0.10526       -0.05263        0.00000
 BRILLOUIN|   143           0.00554       -0.10526        0.00000        0.00000
 BRILLOUIN|   144           0.00554       -0.10526        0.05263        0.00000
 BRILLOUIN|   145           0.00554       -0.10526        0.10526        0.00000
 BRILLOUIN|   146           0.00554       -0.10526        0.15789        0.00000
 BRILLOUIN|   147           0.00554       -0.10526        0.21053        0.00000
 BRILLOUIN|   148           0.00554       -0.10526        0.26316        0.00000
 BRILLOUIN|   149           0.00554       -0.10526        0.31579        0.00000
 BRILLOUIN|   150           0.00554       -0.10526        0.36842        0.00000
 BRILLOUIN|   151           0.00554       -0.10526        0.42105        0.00000
 BRILLOUIN|   152           0.00554       -0.10526        0.47368        0.00000
 BRILLOUIN|   153           0.00554       -0.05263       -0.47368        0.00000
 BRILLOUIN|   154           0.00554       -0.05263       -0.42105        0.00000
 BRILLOUIN|   155           0.00554       -0.05263       -0.36842        0.00000
 BRILLOUIN|   156           0.00554       -0.05263       -0.31579        0.00000
 BRILLOUIN|   157           0.00554       -0.05263       -0.26316        0.00000
 BRILLOUIN|   158           0.00554       -0.05263       -0.21053        0.00000
 BRILLOUIN|   159           0.00554       -0.05263       -0.15789        0.00000
 BRILLOUIN|   160           0.00554       -0.05263       -0.10526        0.00000
 BRILLOUIN|   161           0.00554       -0.05263       -0.05263        0.00000
 BRILLOUIN|   162           0.00554       -0.05263        0.00000        0.00000
 BRILLOUIN|   163           0.00554       -0.05263        0.05263        0.00000
 BRILLOUIN|   164           0.00554       -0.05263        0.10526        0.00000
 BRILLOUIN|   165           0.00554       -0.05263        0.15789        0.00000
 BRILLOUIN|   166           0.00554       -0.05263        0.21053        0.00000
 BRILLOUIN|   167           0.00554       -0.05263        0.26316        0.00000
 BRILLOUIN|   168           0.00554       -0.05263        0.31579        0.00000
 BRILLOUIN|   169           0.00554       -0.05263        0.36842        0.00000
 BRILLOUIN|   170           0.00554       -0.05263        0.42105        0.00000
 BRILLOUIN|   171           0.00554       -0.05263        0.47368        0.00000
 BRILLOUIN|   172           0.00554        0.00000       -0.47368        0.00000
 BRILLOUIN|   173           0.00554        0.00000       -0.42105        0.00000
 BRILLOUIN|   174           0.00554        0.00000       -0.36842        0.00000
 BRILLOUIN|   175           0.00554        0.00000       -0.31579        0.00000
 BRILLOUIN|   176           0.00554        0.00000       -0.26316        0.00000
 BRILLOUIN|   177           0.00554        0.00000       -0.21053        0.00000
 BRILLOUIN|   178           0.00554        0.00000       -0.15789        0.00000
 BRILLOUIN|   179           0.00554        0.00000       -0.10526        0.00000
 BRILLOUIN|   180           0.00554        0.00000       -0.05263        0.00000
 BRILLOUIN|   181           0.00277        0.00000        0.00000        0.00000
 *******************************************************************************

 *******************************************************************************
 *******************************************************************************
 **                                                                           **
 **     #####                         ##              ##                      **
 **    ##   ##            ##          ##              ##                      **
 **   ##     ##                       ##            ######                    **
 **   ##     ##  ##   ##  ##   #####  ##  ##   ####   ##    #####    #####    **
 **   ##     ##  ##   ##  ##  ##      ## ##   ##      ##   ##   ##  ##   ##   **
 **   ##  ## ##  ##   ##  ##  ##      ####     ###    ##   ######   ######    **
 **    ##  ###   ##   ##  ##  ##      ## ##      ##   ##   ##       ##        **
 **     #######   #####   ##   #####  ##  ##  ####    ##    #####   ##        **
 **           ##                                                    ##        **
 **                                                                           **
 **                                                ... make the atoms dance   **
 **                                                                           **
 **            Copyright (C) by CP2K developers group (2000-2024)             **
 **                      J. Chem. Phys. 152, 194103 (2020)                    **
 **                                                                           **
 *******************************************************************************

 DFT| Spin restricted Kohn-Sham (RKS) calculation                            RKS
 DFT| Multiplicity                                                             1
 DFT| Number of spin states                                                    1
 DFT| Charge                                                                   0
 DFT| Self-interaction correction (SIC)                                       NO
 DFT| Cutoffs: density                                              1.000000E-10
 DFT|          gradient                                             1.000000E-10
 DFT|          tau                                                  1.000000E-10
 DFT|          cutoff_smoothing_range                               0.000000E+00
 DFT| XC density smoothing                                                  NONE
 DFT| XC derivatives                                                          PW

 FUNCTIONAL| PBE:
 FUNCTIONAL| J.P.Perdew, K.Burke, M.Ernzerhof, Phys. Rev. Letter, vol. 77, n 18,
 FUNCTIONAL|  pp. 3865-3868, (1996)sx=0.750sc=1.000{spin unpolarized}           


 QS| Method:                                                                GAPW
 QS| Density plane wave grid type                        NON-SPHERICAL FULLSPACE
 QS| Number of grid levels:                                                    5
 QS| Density cutoff [a.u.]:                                                300.0
 QS| Multi grid cutoff [a.u.]: 1) grid level                               300.0
 QS|                           2) grid level                               100.0
 QS|                           3) grid level                                33.3
 QS|                           4) grid level                                11.1
 QS|                           5) grid level                                 3.7
 QS| Grid level progression factor:                                          3.0
 QS| Relative density cutoff [a.u.]:                                        30.0
 QS| Interaction thresholds: eps_pgf_orb:                                1.0E-06
 QS|                         eps_filter_matrix:                          0.0E+00
 QS|                         eps_core_charge:                            1.0E-12
 QS|                         eps_rho_gspace:                             1.0E-10
 QS|                         eps_rho_rspace:                             1.0E-10
 QS|                         eps_gvg_rspace:                             1.0E-05
 QS|                         eps_ppl:                                    1.0E-02
 QS|                         eps_ppnl:                                   1.0E-07
 QS| GAPW|      One center basis from orbital basis primitives
 QS| GAPW|                   eps_fit:                                    1.0E-04
 QS| GAPW|                   eps_iso:                                    1.0E-12
 QS| GAPW|                   eps_svd:                                    1.0E-08
 QS| GAPW|                   eps_cpc:                                    1.0E-10
 QS| GAPW|   atom-r-grid: quadrature:                                     GC_LOG
 QS| GAPW|      atom-s-grid:  max l :                                          4
 QS| GAPW|      max_l_rho0 :                                                   2

 ADMM| Specific ADMM type specified                                        ADMMS
 ADMM| Density matrix purification method                                   NONE
 ADMM| Orbital projection with charge constrain
 ADMM| Use Merlot (2014) scaling model
 ADMM| eps_filter                                                0.000000000    
 ADMM| Exchange functional in correction term                            (W)PBEX



 ATOMIC KIND INFORMATION

  1. Atomic kind: C                                     Number of atoms:       2

     Orbital Basis Set                                             pob-TZVP-rev2

       Number of orbital shell sets:                                           8
       Number of orbital shells:                                               8
       Number of primitive Cartesian functions:                               17
       Number of Cartesian basis functions:                                   19
       Number of spherical basis functions:                                   18
       Norm type:                                                              2

       Normalised Cartesian orbitals:

                        Set   Shell   Orbital            Exponent    Coefficient

                          1       1    2s                0.164407       0.184014

                          2       1    2px               0.197354       0.187499
                          2       1    2py               0.197354       0.187499
                          2       1    2pz               0.197354       0.187499

                          3       1    2s                0.494110       0.420028

                          4       1    2px               0.566242       0.700152
                          4       1    2py               0.566242       0.700152
                          4       1    2pz               0.566242       0.700152

                          5       1    3dx2              0.579158       0.632856
                          5       1    3dxy              0.579158       1.096139
                          5       1    3dxz              0.579158       1.096139
                          5       1    3dy2              0.579158       0.632856
                          5       1    3dyz              0.579158       1.096139
                          5       1    3dz2              0.579158       0.632856

                          6       1    2px              34.697232       1.359665
                                                         7.958262       1.451259
                                                         2.378083       1.270923
                                                         0.814332       0.802572
                          6       1    2py              34.697232       1.359665
                                                         7.958262       1.451259
                                                         2.378083       1.270923
                                                         0.814332       0.802572
                          6       1    2pz              34.697232       1.359665
                                                         7.958262       1.451259
                                                         2.378083       1.270923
                                                         0.814332       0.802572

                          7       1    2s                6.206714       1.838354
                                                         2.576490       0.544758

                          8       1    1s            13575.349682       0.543591
                                                      2035.233368       1.014554
                                                       463.225624       1.731573
                                                       131.200196       2.691038
                                                        42.853016       3.604455
                                                        15.584186       3.702556

     Auxiliary Fit Basis Set                                       pob-DZVP-rev2

       Number of orbital shell sets:                                           6
       Number of orbital shells:                                               6
       Number of primitive Cartesian functions:                               12
       Number of Cartesian basis functions:                                   15
       Number of spherical basis functions:                                   14
       Norm type:                                                              2

       Normalised Cartesian orbitals:

                        Set   Shell   Orbital            Exponent    Coefficient

                          1       1    2px               0.210462       0.203192
                          1       1    2py               0.210462       0.203192
                          1       1    2pz               0.210462       0.203192

                          2       1    2s                0.235471       0.240915

                          3       1    2s                0.468667       0.403699

                          4       1    3dx2              0.528578       0.539325
                          4       1    3dxy              0.528578       0.934138
                          4       1    3dxz              0.528578       0.934138
                          4       1    3dy2              0.528578       0.539325
                          4       1    3dyz              0.528578       0.934138
                          4       1    3dz2              0.528578       0.539325

                          5       1    2px               9.468097       1.346765
                                                         2.010355       1.067807
                                                         0.547710       0.510874
                          5       1    2py               9.468097       1.346765
                                                         2.010355       1.067807
                                                         0.547710       0.510874
                          5       1    2pz               9.468097       1.346765
                                                         2.010355       1.067807
                                                         0.547710       0.510874

                          6       1    1s             1238.401694       0.820896
                                                       186.290050       1.476645
                                                        42.251176       2.152612
                                                        11.676558       2.108172
                                                         3.593051       0.829100

     RI HFX Basis Set                                     C-RI-AUX-pob-DZVP-rev2

       Number of orbital shell sets:                                           2
       Number of orbital shells:                                              26
       Number of primitive Cartesian functions:                               12
       Number of Cartesian basis functions:                                   84
       Number of spherical basis functions:                                   74
       Norm type:                                                              2

       Normalised Cartesian orbitals:

                        Set   Shell   Orbital            Exponent    Coefficient

                          1       1    1s              150.289635      30.591929
                                                        83.494241       0.000000
                                                        46.385690       0.000000
                                                        25.769828       0.000000
                                                        14.316571       0.000000
                                                         7.953650       0.000000
                                                         4.418695       0.000000
                                                         2.454830       0.000000
                                                         1.363795       0.000000
                                                         0.757664       0.000000
                                                         0.420924       0.000000

                          1       2    2s              150.289635     -82.876719
                                                        83.494241      56.848086
                                                        46.385690       0.000000
                                                        25.769828       0.000000
                                                        14.316571       0.000000
                                                         7.953650       0.000000
                                                         4.418695       0.000000
                                                         2.454830       0.000000
                                                         1.363795       0.000000
                                                         0.757664       0.000000
                                                         0.420924       0.000000

                          1       3    3s              150.289635     124.242243
                                                        83.494241    -167.033126
                                                        46.385690      63.126899
                                                        25.769828       0.000000
                                                        14.316571       0.000000
                                                         7.953650       0.000000
                                                         4.418695       0.000000
                                                         2.454830       0.000000
                                                         1.363795       0.000000
                                                         0.757664       0.000000
                                                         0.420924       0.000000

                          1       4    4s              150.289635    -136.473800
                                                        83.494241     256.835278
                                                        46.385690    -190.318699
                                                        25.769828      54.521247
                                                        14.316571       0.000000
                                                         7.953650       0.000000
                                                         4.418695       0.000000
                                                         2.454830       0.000000
                                                         1.363795       0.000000
                                                         0.757664       0.000000
                                                         0.420924       0.000000

                          1       5    5s              150.289635     125.859661
                                                        83.494241    -285.029958
                                                        46.385690     295.698145
                                                        25.769828    -166.152602
                                                        14.316571      41.190220
                                                         7.953650       0.000000
                                                         4.418695       0.000000
                                                         2.454830       0.000000
                                                         1.363795       0.000000
                                                         0.757664       0.000000
                                                         0.420924       0.000000

                          1       6    6s              150.289635    -105.165948
                                                        83.494241     264.073990
                                                        46.385690    -329.675070
                                                        25.769828     259.386853
                                                        14.316571    -126.163355
                                                         7.953650      28.934472
                                                         4.418695       0.000000
                                                         2.454830       0.000000
                                                         1.363795       0.000000
                                                         0.757664       0.000000
                                                         0.420924       0.000000

                          1       7    7s              150.289635      83.155391
                                                        83.494241    -221.135840
                                                        46.385690     306.091482
                                                        25.769828    -289.827233
                                                        14.316571     197.418793
                                                         7.953650     -88.849291
                                                         4.418695      19.532919
                                                         2.454830       0.000000
                                                         1.363795       0.000000
                                                         0.757664       0.000000
                                                         0.420924       0.000000

                          1       8    8s              150.289635     -63.768003
                                                        83.494241     175.039352
                                                        46.385690    -256.584129
                                                        25.769828     269.372219
                                                        14.316571    -220.827433
                                                         7.953650     139.195612
                                                         4.418695     -60.058618
                                                         2.454830      12.902608
                                                         1.363795       0.000000
                                                         0.757664       0.000000
                                                         0.420924       0.000000

                          1       9    9s              150.289635      48.081297
                                                        83.494241    -134.300527
                                                        46.385690     203.199989
                                                        25.769828    -225.915481
                                                        14.316571     205.347604
                                                         7.953650    -155.787332
                                                         4.418695      94.149182
                                                         2.454830     -39.699704
                                                         1.363795       8.422258
                                                         0.757664       0.000000
                                                         0.420924       0.000000

                          1      10   10s              150.289635     -35.918271
                                                        83.494241     101.290024
                                                        46.385690    -155.945657
                                                        25.769828     178.955104
                                                        14.316571    -172.261844
                                                         7.953650     144.904745
                                                         4.418695    -105.402203
                                                         2.454830      62.254631
                                                         1.363795     -25.923876
                                                         0.757664       5.462124
                                                         0.420924       0.000000

                          1      11   11s              150.289635      26.695747
                                                        83.494241     -75.677101
                                                        46.385690     117.629415
                                                        25.769828    -137.355105
                                                        14.316571     136.470370
                                                         7.953650    -121.572687
                                                         4.418695      98.052690
                                                         2.454830     -69.706291
                                                         1.363795      40.659420
                                                         0.757664     -16.815905
                                                         0.420924       3.529848

                          1      12    2px             150.289635     750.069271
                                                        83.494241       0.000000
                                                        46.385690       0.000000
                                                        25.769828       0.000000
                                                        14.316571       0.000000
                                                         7.953650       0.000000
                                                         4.418695       0.000000
                                                         2.454830       0.000000
                                                         1.363795       0.000000
                                                         0.757664       0.000000
                                                         0.420924       0.000000
                          1      12    2py             150.289635     750.069271
                                                        83.494241       0.000000
                                                        46.385690       0.000000
                                                        25.769828       0.000000
                                                        14.316571       0.000000
                                                         7.953650       0.000000
                                                         4.418695       0.000000
                                                         2.454830       0.000000
                                                         1.363795       0.000000
                                                         0.757664       0.000000
                                                         0.420924       0.000000
                          1      12    2pz             150.289635     750.069271
                                                        83.494241       0.000000
                                                        46.385690       0.000000
                                                        25.769828       0.000000
                                                        14.316571       0.000000
                                                         7.953650       0.000000
                                                         4.418695       0.000000
                                                         2.454830       0.000000
                                                         1.363795       0.000000
                                                         0.757664       0.000000
                                                         0.420924       0.000000

                          1      13    3px             150.289635   -1539.906933
                                                        83.494241     821.548677
                                                        46.385690       0.000000
                                                        25.769828       0.000000
                                                        14.316571       0.000000
                                                         7.953650       0.000000
                                                         4.418695       0.000000
                                                         2.454830       0.000000
                                                         1.363795       0.000000
                                                         0.757664       0.000000
                                                         0.420924       0.000000
                          1      13    3py             150.289635   -1539.906933
                                                        83.494241     821.548677
                                                        46.385690       0.000000
                                                        25.769828       0.000000
                                                        14.316571       0.000000
                                                         7.953650       0.000000
                                                         4.418695       0.000000
                                                         2.454830       0.000000
                                                         1.363795       0.000000
                                                         0.757664       0.000000
                                                         0.420924       0.000000
                          1      13    3pz             150.289635   -1539.906933
                                                        83.494241     821.548677
                                                        46.385690       0.000000
                                                        25.769828       0.000000
                                                        14.316571       0.000000
                                                         7.953650       0.000000
                                                         4.418695       0.000000
                                                         2.454830       0.000000
                                                         1.363795       0.000000
                                                         0.757664       0.000000
                                                         0.420924       0.000000

                          1      14    4px             150.289635    1947.068109
                                                        83.494241   -1957.794210
                                                        46.385690     596.574392
                                                        25.769828       0.000000
                                                        14.316571       0.000000
                                                         7.953650       0.000000
                                                         4.418695       0.000000
                                                         2.454830       0.000000
                                                         1.363795       0.000000
                                                         0.757664       0.000000
                                                         0.420924       0.000000
                          1      14    4py             150.289635    1947.068109
                                                        83.494241   -1957.794210
                                                        46.385690     596.574392
                                                        25.769828       0.000000
                                                        14.316571       0.000000
                                                         7.953650       0.000000
                                                         4.418695       0.000000
                                                         2.454830       0.000000
                                                         1.363795       0.000000
                                                         0.757664       0.000000
                                                         0.420924       0.000000
                          1      14    4pz             150.289635    1947.068109
                                                        83.494241   -1957.794210
                                                        46.385690     596.574392
                                                        25.769828       0.000000
                                                        14.316571       0.000000
                                                         7.953650       0.000000
                                                         4.418695       0.000000
                                                         2.454830       0.000000
                                                         1.363795       0.000000
                                                         0.757664       0.000000
                                                         0.420924       0.000000

                          1      15    5px             150.289635   -1912.410014
                                                        83.494241    2604.140521
                                                        46.385690   -1497.069014
                                                        25.769828     355.528947
                                                        14.316571       0.000000
                                                         7.953650       0.000000
                                                         4.418695       0.000000
                                                         2.454830       0.000000
                                                         1.363795       0.000000
                                                         0.757664       0.000000
                                                         0.420924       0.000000
                          1      15    5py             150.289635   -1912.410014
                                                        83.494241    2604.140521
                                                        46.385690   -1497.069014
                                                        25.769828     355.528947
                                                        14.316571       0.000000
                                                         7.953650       0.000000
                                                         4.418695       0.000000
                                                         2.454830       0.000000
                                                         1.363795       0.000000
                                                         0.757664       0.000000
                                                         0.420924       0.000000
                          1      15    5pz             150.289635   -1912.410014
                                                        83.494241    2604.140521
                                                        46.385690   -1497.069014
                                                        25.769828     355.528947
                                                        14.316571       0.000000
                                                         7.953650       0.000000
                                                         4.418695       0.000000
                                                         2.454830       0.000000
                                                         1.363795       0.000000
                                                         0.757664       0.000000
                                                         0.420924       0.000000

                          1      16    6px             150.289635    1634.471098
                                                        83.494241   -2611.816838
                                                        46.385690    2034.123538
                                                        25.769828    -912.180953
                                                        14.316571     191.207948
                                                         7.953650       0.000000
                                                         4.418695       0.000000
                                                         2.454830       0.000000
                                                         1.363795       0.000000
                                                         0.757664       0.000000
                                                         0.420924       0.000000
                          1      16    6py             150.289635    1634.471098
                                                        83.494241   -2611.816838
                                                        46.385690    2034.123538
                                                        25.769828    -912.180953
                                                        14.316571     191.207948
                                                         7.953650       0.000000
                                                         4.418695       0.000000
                                                         2.454830       0.000000
                                                         1.363795       0.000000
                                                         0.757664       0.000000
                                                         0.420924       0.000000
                          1      16    6pz             150.289635    1634.471098
                                                        83.494241   -2611.816838
                                                        46.385690    2034.123538
                                                        25.769828    -912.180953
                                                        14.316571     191.207948
                                                         7.953650       0.000000
                                                         4.418695       0.000000
                                                         2.454830       0.000000
                                                         1.363795       0.000000
                                                         0.757664       0.000000
                                                         0.420924       0.000000

                          1      17    7px             150.289635   -1294.215955
                                                        83.494241    2253.092182
                                                        46.385690   -2059.304716
                                                        25.769828    1251.567441
                                                        14.316571    -495.720235
                                                         7.953650      97.416033
                                                         4.418695       0.000000
                                                         2.454830       0.000000
                                                         1.363795       0.000000
                                                         0.757664       0.000000
                                                         0.420924       0.000000
                          1      17    7py             150.289635   -1294.215955
                                                        83.494241    2253.092182
                                                        46.385690   -2059.304716
                                                        25.769828    1251.567441
                                                        14.316571    -495.720235
                                                         7.953650      97.416033
                                                         4.418695       0.000000
                                                         2.454830       0.000000
                                                         1.363795       0.000000
                                                         0.757664       0.000000
                                                         0.420924       0.000000
                          1      17    7pz             150.289635   -1294.215955
                                                        83.494241    2253.092182
                                                        46.385690   -2059.304716
                                                        25.769828    1251.567441
                                                        14.316571    -495.720235
                                                         7.953650      97.416033
                                                         4.418695       0.000000
                                                         2.454830       0.000000
                                                         1.363795       0.000000
                                                         0.757664       0.000000
                                                         0.420924       0.000000

                          1      18    8px             150.289635     233.899975
                                                        83.494241    -426.259738
                                                        46.385690     424.426926
                                                        25.769828    -302.763338
                                                        14.316571     162.573923
                                                         7.953650     -60.393197
                                                         4.418695      11.474663
                                                         2.454830       1.041991
                                                         1.363795       0.499774
                                                         0.757664       0.239708
                                                         0.420924       0.114972
                          1      18    8py             150.289635     233.899975
                                                        83.494241    -426.259738
                                                        46.385690     424.426926
                                                        25.769828    -302.763338
                                                        14.316571     162.573923
                                                         7.953650     -60.393197
                                                         4.418695      11.474663
                                                         2.454830       1.041991
                                                         1.363795       0.499774
                                                         0.757664       0.239708
                                                         0.420924       0.114972
                          1      18    8pz             150.289635     233.899975
                                                        83.494241    -426.259738
                                                        46.385690     424.426926
                                                        25.769828    -302.763338
                                                        14.316571     162.573923
                                                         7.953650     -60.393197
                                                         4.418695      11.474663
                                                         2.454830       1.041991
                                                         1.363795       0.499774
                                                         0.757664       0.239708
                                                         0.420924       0.114972

                          1      19    3dx2            150.289635   10617.817502
                                                        83.494241       0.000000
                                                        46.385690       0.000000
                                                        25.769828       0.000000
                                                        14.316571       0.000000
                                                         7.953650       0.000000
                                                         4.418695       0.000000
                                                         2.454830       0.000000
                                                         1.363795       0.000000
                                                         0.757664       0.000000
                                                         0.420924       0.000000
                          1      19    3dxy            150.289635   18390.599380
                                                        83.494241       0.000000
                                                        46.385690       0.000000
                                                        25.769828       0.000000
                                                        14.316571       0.000000
                                                         7.953650       0.000000
                                                         4.418695       0.000000
                                                         2.454830       0.000000
                                                         1.363795       0.000000
                                                         0.757664       0.000000
                                                         0.420924       0.000000
                          1      19    3dxz            150.289635   18390.599380
                                                        83.494241       0.000000
                                                        46.385690       0.000000
                                                        25.769828       0.000000
                                                        14.316571       0.000000
                                                         7.953650       0.000000
                                                         4.418695       0.000000
                                                         2.454830       0.000000
                                                         1.363795       0.000000
                                                         0.757664       0.000000
                                                         0.420924       0.000000
                          1      19    3dy2            150.289635   10617.817502
                                                        83.494241       0.000000
                                                        46.385690       0.000000
                                                        25.769828       0.000000
                                                        14.316571       0.000000
                                                         7.953650       0.000000
                                                         4.418695       0.000000
                                                         2.454830       0.000000
                                                         1.363795       0.000000
                                                         0.757664       0.000000
                                                         0.420924       0.000000
                          1      19    3dyz            150.289635   18390.599380
                                                        83.494241       0.000000
                                                        46.385690       0.000000
                                                        25.769828       0.000000
                                                        14.316571       0.000000
                                                         7.953650       0.000000
                                                         4.418695       0.000000
                                                         2.454830       0.000000
                                                         1.363795       0.000000
                                                         0.757664       0.000000
                                                         0.420924       0.000000
                          1      19    3dz2            150.289635   10617.817502
                                                        83.494241       0.000000
                                                        46.385690       0.000000
                                                        25.769828       0.000000
                                                        14.316571       0.000000
                                                         7.953650       0.000000
                                                         4.418695       0.000000
                                                         2.454830       0.000000
                                                         1.363795       0.000000
                                                         0.757664       0.000000
                                                         0.420924       0.000000

                          1      20    4dx2            150.289635  -18018.772704
                                                        83.494241    7476.865426
                                                        46.385690       0.000000
                                                        25.769828       0.000000
                                                        14.316571       0.000000
                                                         7.953650       0.000000
                                                         4.418695       0.000000
                                                         2.454830       0.000000
                                                         1.363795       0.000000
                                                         0.757664       0.000000
                                                         0.420924       0.000000
                          1      20    4dxy            150.289635  -31209.429814
                                                        83.494241   12950.310799
                                                        46.385690       0.000000
                                                        25.769828       0.000000
                                                        14.316571       0.000000
                                                         7.953650       0.000000
                                                         4.418695       0.000000
                                                         2.454830       0.000000
                                                         1.363795       0.000000
                                                         0.757664       0.000000
                                                         0.420924       0.000000
                          1      20    4dxz            150.289635  -31209.429814
                                                        83.494241   12950.310799
                                                        46.385690       0.000000
                                                        25.769828       0.000000
                                                        14.316571       0.000000
                                                         7.953650       0.000000
                                                         4.418695       0.000000
                                                         2.454830       0.000000
                                                         1.363795       0.000000
                                                         0.757664       0.000000
                                                         0.420924       0.000000
                          1      20    4dy2            150.289635  -18018.772704
                                                        83.494241    7476.865426
                                                        46.385690       0.000000
                                                        25.769828       0.000000
                                                        14.316571       0.000000
                                                         7.953650       0.000000
                                                         4.418695       0.000000
                                                         2.454830       0.000000
                                                         1.363795       0.000000
                                                         0.757664       0.000000
                                                         0.420924       0.000000
                          1      20    4dyz            150.289635  -31209.429814
                                                        83.494241   12950.310799
                                                        46.385690       0.000000
                                                        25.769828       0.000000
                                                        14.316571       0.000000
                                                         7.953650       0.000000
                                                         4.418695       0.000000
                                                         2.454830       0.000000
                                                         1.363795       0.000000
                                                         0.757664       0.000000
                                                         0.420924       0.000000
                          1      20    4dz2            150.289635  -18018.772704
                                                        83.494241    7476.865426
                                                        46.385690       0.000000
                                                        25.769828       0.000000
                                                        14.316571       0.000000
                                                         7.953650       0.000000
                                                         4.418695       0.000000
                                                         2.454830       0.000000
                                                         1.363795       0.000000
                                                         0.757664       0.000000
                                                         0.420924       0.000000

                          1      21    5dx2            150.289635   20028.713481
                                                        83.494241  -15087.936400
                                                        46.385690    3700.958633
                                                        25.769828       0.000000
                                                        14.316571       0.000000
                                                         7.953650       0.000000
                                                         4.418695       0.000000
                                                         2.454830       0.000000
                                                         1.363795       0.000000
                                                         0.757664       0.000000
                                                         0.420924       0.000000
                          1      21    5dxy            150.289635   34690.749360
                                                        83.494241  -26133.072427
                                                        46.385690    6410.248390
                                                        25.769828       0.000000
                                                        14.316571       0.000000
                                                         7.953650       0.000000
                                                         4.418695       0.000000
                                                         2.454830       0.000000
                                                         1.363795       0.000000
                                                         0.757664       0.000000
                                                         0.420924       0.000000
                          1      21    5dxz            150.289635   34690.749360
                                                        83.494241  -26133.072427
[...]
  Hard and soft densities (Lebedev):          -19.1192184210      -15.3314368438
  Total Rho_soft + Rho1_hard - Rho1_soft      -11.9999992134
  Total charge density (r-space):               0.0000007866
  Total Rho_soft + Rho0_soft (g-space):         0.0000006909

  Overlap energy of the core charge distribution:               0.00000213718999
  Self energy of the core charge distribution:                -58.22549323810243
  Core Hamiltonian energy:                                    -14.58247751661255
  Hartree energy:                                              16.01852441426345
  Exchange-correlation energy:                                 -2.71400175653866
  Hartree-Fock Exchange energy:                                -2.59673164282393

  GAPW| Exc from hard and soft atomic rho1:                    -5.50595784959377
  GAPW| local Eh = 1 center integrals:                         -8.55856679665089

  Total energy:                                               -76.16470224886879

 !-----------------------------------------------------------------------------!
                     Mulliken Population Analysis

 #  Atom  Element  Kind  Atomic population                           Net charge
       1     C        1          6.000000                              0.000000
       2     C        1          6.000000                             -0.000000
 # Total charge                             12.000000                 -0.000000

 !-----------------------------------------------------------------------------!

 !-----------------------------------------------------------------------------!
                           Hirshfeld Charges

  #Atom  Element  Kind  Ref Charge     Population                    Net charge
      1       C      1       6.000          6.000                         0.000
      2       C      1       6.000          6.000                         0.000

  Total Charge                                                            0.000
 !-----------------------------------------------------------------------------!

 KPOINTS| Band Structure Calculation
 KPOINTS| Number of k-point sets                                               1
 KPOINTS| Number of added MOs/bands                                            5
 KPOINTS| Number of k-points in set    1                                     151
 KPOINTS| In units of b-vector [2pi/Bohr]
 KPOINTS| Special point     1       GAMMA     0.000000     0.000000     0.000000
 KPOINTS| Special point     2           M     0.500000     0.000000     0.000000
 KPOINTS| Special point     3           K     0.333333     0.333333     0.000000
 KPOINTS| Special point     4       GAMMA     0.000000     0.000000     0.000000
 KPOINTS| Time for k-point line                                            1.012

 ENERGY| Total FORCE_EVAL ( QS ) energy [a.u.]:              -76.164702248868792

 -------------------------------------------------------------------------------
 -                                                                             -
 -                                DBCSR STATISTICS                             -
 -                                                                             -
 -------------------------------------------------------------------------------
 COUNTER                                    TOTAL       BLAS       SMM       ACC
 flops inhomo. stacks                           0       0.0%      0.0%      0.0%
 flops total                         0.000000E+00       0.0%      0.0%      0.0%
 flops max/rank                      0.000000E+00       0.0%      0.0%      0.0%
 matmuls inhomo. stacks                         0       0.0%      0.0%      0.0%
 matmuls total                                  0       0.0%      0.0%      0.0%
 number of processed stacks                     0       0.0%      0.0%      0.0%
 average stack size                                     0.0       0.0       0.0
 marketing flops                     0.000000E+00
 -------------------------------------------------------------------------------
 -                                                                             -
 -                      DBCSR MESSAGE PASSING PERFORMANCE                      -
 -                                                                             -
 -------------------------------------------------------------------------------
 ROUTINE             CALLS      AVE VOLUME [Bytes]
 MP_Bcast                1                     12.
 MP_Allreduce         9199                      8.
 MP_Alltoall        290065                  28097.
 -------------------------------------------------------------------------------

 -------------------------------------------------------------------------------
 -                                                                             -
 -                                DBM STATISTICS                               -
 -                                                                             -
 -------------------------------------------------------------------------------
    M  x    N  x    K                                          COUNT     PERCENT
   ??  x   ??  x   ??                                      212515020      21.39%
    ?  x   ??  x   ??                                      190868286      19.21%
   ??  x   ??  x    ?                                      166974104      16.80%
    ?  x   ??  x    ?                                      155335004      15.63%
    ?  x    ?  x    ?                                      144262354      14.52%
  ???  x    ?  x    ?                                       49895917       5.02%
   ??  x    ?  x    ?                                       44496004       4.48%
    ?  x    ?  x  ???                                       17311120       1.74%
    ?  x    ?  x   ??                                       11943310       1.20%
 -------------------------------------------------------------------------------

 -------------------------------------------------------------------------------
 -                                                                             -
 -                                GRID STATISTICS                              -
 -                                                                             -
 -------------------------------------------------------------------------------
 LP    KERNEL             BACKEND                              COUNT     PERCENT
 1     collocate general  CPU                                  24828      18.49%
 2     collocate general  CPU                                  24175      18.01%
 1     integrate general  CPU                                  23460      17.47%
 2     integrate general  CPU                                  22940      17.09%
 0     collocate general  CPU                                  10383       7.73%
 0     integrate general  CPU                                   9840       7.33%
 3     collocate general  CPU                                   8384       6.24%
 3     integrate general  CPU                                   7960       5.93%
 4     collocate general  CPU                                   1176       0.88%
 4     integrate general  CPU                                   1120       0.83%
 -------------------------------------------------------------------------------

 MEMORY| Estimated peak process memory [MiB]                                2122

 -------------------------------------------------------------------------------
 ----                             MULTIGRID INFO                            ----
 -------------------------------------------------------------------------------
 count for grid        1:         159600          cutoff [a.u.]          300.00
 count for grid        2:          22453          cutoff [a.u.]          100.00
 count for grid        3:          29094          cutoff [a.u.]           33.33
 count for grid        4:           2724          cutoff [a.u.]           11.11
 count for grid        5:              0          cutoff [a.u.]            3.70
 total gridlevel count  :         213871

 RI-HFX PERFORMANCE| DBT total number of flops:                         ********
 RI-HFX PERFORMANCE| DBT total execution time:                            157.70
 RI-HFX PERFORMANCE| DBT flop rate (Gflops / MPI rank):              48795235.02

 -------------------------------------------------------------------------------
 -                                                                             -
 -                         MESSAGE PASSING PERFORMANCE                         -
 -                                                                             -
 -------------------------------------------------------------------------------

 ROUTINE             CALLS      AVE VOLUME [Bytes]
 MP_Group            44653
 MP_Bcast           180972                   2141.
 MP_Allreduce        24269                    187.
 MP_Sync             59115
 MP_Alltoall         27222
 MP_SendRecv          7476                   4232.
 MP_ISendRecv         7120                   4232.
 MP_Wait            161482
 MP_comm_split        2854
 MP_ISend           666612                  37961.
 MP_IRecv           386979                  46616.
 -------------------------------------------------------------------------------


 -------------------------------------------------------------------------------
 -                                                                             -
 -                           R E F E R E N C E S                               -
 -                                                                             -
 -------------------------------------------------------------------------------
 
 CP2K version 2024.3, the CP2K developers group (2024).
 CP2K is freely available from https://www.cp2k.org/ .
 
 A. Bussy, J. Hutter.
 J. Chem. Phys. 160, 064116 (2024).
 Efficient periodic resolution-of-the-identity HartreeFock exchange method 
 with k-point sampling and Gaussian basis sets.
 https://doi.org/10.1063/5.0189659

 A. Bussy, O. Schuett, J. Hutter.
 J. Chem. Phys. 158, 164109 (2023).
 Sparse tensor based nuclear gradients for periodic Hartree-Fock and low-scaling 
 correlated wave function methods in the CP2K software package: A massively 
 parallel and GPU accelerated implementation..
 https://doi.org/10.1063/5.0144493

 T. D. Kuehne, M. Iannuzzi, M. Del Ben, V. V. Rybkin, P. Seewald, F. Stein, T. 
 Laino, R. Z. Khaliullin, O. Schuett, F. Schiffmann, D. Golze, J. Wilhelm, S. 
 Chulkov, M. H. Bani-Hashemian, V. Weber, U. Borstnik, M. Taillefumier, A. S. 
 Jakobovits, A. Lazzaro, H. Pabst, T. Mueller, R. Schade, M. Guidon, S. 
 Andermatt, N. Holmberg, G. K. Schenter, A. Hehn, A. Bussy, F. Belleflamme, G. 
 Tabacchi, A. Gloess, M. Lass, I. Bethune, C. J. Mundy, C. Plessl, M. Watkins, 
 J. VandeVondele, M. Krack, J. Hutter.
 J. Chem. Phys. 152, 194103 (2020).
 CP2K: An electronic structure and molecular dynamics software package - 
 Quickstep: Efficient and accurate electronic structure calculations.
 https://doi.org/10.1063/5.0007045

 A. Togo, I. Tanaka.
 arXiv, 1808.01590 (2018).
 Spglib : a software library for crystal symmetry search.

 G. L. Stoychev, A. A. Auer, F. Neese.
 J. Chem. Theory Comput. 13, 554-562 (2017).
 Automatic Generation of Auxiliary Basis Sets.
 https://doi.org/10.1021/acs.jctc.6b01041

 O. Schuett, P. Messmer, J. Hutter, J. VandeVondele.
 Electronic Structure Calculations on Graphics Processing Units, 173-190 (2016).
 GPU-Accelerated Sparse Matrix-Matrix Multiplication for Linear Scaling Density 
 Functional Theory.
 https://doi.org/10.1002/9781118670712.ch8

 A. Heinecke, G. Henry, M. Hutchinson, H. Pabst.
 Proceedings of Intl. Supercomputing Conference, 981-991 (2016).
 LIBXSMM: Accelerating Small Matrix Multiplications by Runtime Code Generation.
 https://doi.org/10.1109/SC.2016.83

 J. Hutter, M. Iannuzzi, F. Schiffmann, J. VandeVondele.
 WIREs Comput Mol Sci. 4, 15-25 (2014).
 CP2K: atomistic simulations of condensed matter systems.
 https://doi.org/10.1002/wcms.1159

 U. Borstnik, J. VandeVondele, V. Weber, J. Hutter.
 Parallel Comput. 40, 47-58 (2014).
 Sparse matrix multiplication: The distributed block-compressed sparse row 
 library.
 https://doi.org/10.1016/j.parco.2014.03.012

 P. Merlot, R. Izsak, A. Borgo, T. Kjaergaard, T. Helgaker, S. Reine.
 J. Chem. Phys. 141, 094104 (2014).
 Charge-constrained auxiliary-density-matrix methods for the Hartree-Fock 
 exchange contribution.
 https://doi.org/10.1063/1.4894267

 A. Marek, V. Blum, R. Johanni, V. Havu, B. Lang, T. Auckenthaler, A. Heinecke, 
 H. Bungartz, H. Lederer.
 J. Phys. Condens. Matter 26, 213201 (2014).
 The ELPA library: scalable parallel eigenvalue solutions for electronic 
 structure theory and computational science.
 https://doi.org/10.1088/0953-8984/26/21/213201

 M. Guidon, J. Hutter, J. VandeVondele.
 J. Chem. Theory Comput. 6, 2348-2364 (2010).
 Auxiliary Density Matrix Methods for Hartree-Fock Exchange Calculations.
 https://doi.org/10.1021/ct1002225

 M. Guidon, J. Hutter, J. VandeVondele.
 J. Chem. Theory Comput. 5, 3010-3021 (2009).
 Robust Periodic Hartree-Fock Exchange for Large-Scale Simulations Using 
 Gaussian Basis Sets.
 https://doi.org/10.1021/ct900494g

 M. Guidon, F. Schiffmann, J. Hutter, J. VandeVondele.
 J. Chem. Phys. 128, 214104 (2008).
 Ab initio molecular dynamics using hybrid density functionals.
 https://doi.org/10.1063/1.2931945

 M. Frigo, S. G. Johnson.
 Proc. IEEE 93, 216-231 (2005).
 The design and implementation of FFTW3.
 https://doi.org/10.1109/JPROC.2004.840301

 J. Heyd, G. E. Scuseria.
 J. Chem. Phys. 120, 7274-7280 (2004).
 Assessment and validation of a screened Coulomb hybrid density functional.
 https://doi.org/10.1063/1.1668634

 M. Krack, M. Parrinello.
 Phys. Chem. Chem. Phys. 2, 2105-2112 (2000).
 All-electron ab-initio molecular dynamics.
 https://doi.org/10.1039/b001167n

 G. Lippert, J. Hutter, M. Parrinello.
 Theor. Chem. Acc. 103, 124-140 (1999).
 The Gaussian and augmented-plane-wave density functional method for ab initio 
 molecular dynamics simulations.
 https://doi.org/10.1007/s002140050523

 J. P. Perdew, K. Burke, M. Ernzerhof.
 Phys. Rev. Lett. 77, 3865-3868 (1996).
 Generalized gradient approximation made simple.
 https://doi.org/10.1103/PhysRevLett.77.3865


 -------------------------------------------------------------------------------
 -                                                                             -
 -                                T I M I N G                                  -
 -                                                                             -
 -------------------------------------------------------------------------------
 SUBROUTINE                       CALLS  ASD         SELF TIME        TOTAL TIME
                                MAXIMUM       AVERAGE  MAXIMUM  AVERAGE  MAXIMUM
 CP2K                                 1  1.0    0.012    0.018  244.301  244.302
 qs_energies                          1  2.0    0.002    0.004  243.761  243.764
 scf_env_do_scf                       1  3.0    0.000    0.001  242.499  242.500
 scf_env_do_scf_inner_loop           10  4.0    0.001    0.003  242.499  242.500
 qs_ks_update_qs_env                 10  5.0    0.000    0.000  221.570  221.649
 rebuild_ks_matrix                   10  6.0    0.000    0.000  221.541  221.622
 qs_ks_build_kohn_sham_matrix        10  7.0    0.002    0.003  221.541  221.622
 hfx_ks_matrix_kp                    10  8.0    0.010    0.015  201.577  201.658
 hfx_ri_update_ks_kp                 10  9.0    0.043    0.052  201.549  201.550
 dbt_total                        25445 10.6    0.071    0.077  163.282  166.785
 hfx_ri_update_ks_kp_3c             145 10.0    7.954   11.033  137.326  140.974
 dbt_contract                       936 12.0    0.063    0.135  106.141  107.939
 dbt_tas_total                     3427 11.7    5.966    7.110  106.104  107.505
 dbt_tas_multiply                   820 13.1    0.005    0.006  104.180  105.706
 dbt_tas_dbm                        820 15.1    0.006    0.006   62.472   64.660
 mp_sync                          59563 11.3   44.668   59.927   44.668   59.927
 dbm_multiply                       820 17.1   47.560   56.493   47.560   56.493
 dbt_copy                         21882 11.6    0.327    0.361   45.890   49.167
 dbt_tas_mm_3N                      450 16.1    0.002    0.003   39.348   48.334
 dbt_reshape                      12915 12.6   11.604   12.995   26.182   28.037
 get_subgroup_3c_tensors             10 10.0    0.001    0.001   22.358   22.391
 do_general_diag_kp                  11  5.7    0.030    0.033   21.576   21.578
 qs_scf_new_mos_kp                   10  5.0    0.000    0.000   20.572   20.574
 get_subgroup_3c_tensors_apc         10 11.0    0.701    2.477   19.830   19.862
 convert_to_new_pgrid              2460 15.1    0.214    0.278   15.657   17.747
 kpoint_density_transform            30  8.7    0.023    0.024   10.966   17.377
 dbm_copy                          1514 16.1   15.211   17.291   15.211   17.291
 mp_alltoall_i22                  48545 10.0   15.722   16.356   15.722   16.356
 dbcsr_complete_redistribute      23670  9.7    0.327    0.680   13.925   14.311
 mp_sum_l                          9005 13.3   10.514   13.490   10.514   13.490
 dbt_split_blocks_generic         19682 12.6    0.995    1.761   11.519   13.136
 mp_waitall_2                     21782 15.6   12.154   12.894   12.154   12.894
 admm_mo_merge_ks_matrix             10  8.0    0.000    0.000   11.296   11.299
 merge_ks_matrix_none_kp             10  9.0    0.026    0.029   11.295   11.299
 mp_cart_create                   57567 14.7    7.953   10.471    7.995   10.515
 dbt_distribution_new_expert      40147 14.0    0.230    0.247    9.845   10.472
 dbt_communicate_buffer           12915 13.6    0.081    0.235    9.343   10.026
 dbt_pgrid_create_expert          40212 15.0    0.051    0.056    7.000    9.535
 cp_fm_start_copy_general         23410  8.7    0.133    0.238    2.822    9.466
 copy_fm_to_dbcsr                 10983  9.6    0.032    0.036    9.265    9.350
 mp_allgather_i                   46820  9.7    2.165    8.845    2.165    8.845
 dbt_tas_mm_2                       300 16.1    0.003    0.003    8.331    8.843
 dbt_tas_copy                      8979 12.6    4.116    5.224    6.390    8.022
 dbt_tas_replicate                  393 15.3    2.264    2.780    6.844    8.014
 dbm_reserve_blocks               53267 16.1    6.736    7.481    6.736    7.481
 copy_dbcsr_to_fm                 12687  7.9    0.058    0.062    7.051    7.400
 dbcsr_desymmetrize_deep          24875  8.4    0.171    0.241    6.777    7.289
 parallel_gemm_cfm                12489  8.8    0.006    0.006    5.099    7.015
 parallel_gemm_cfm_cosma          12489  9.8    5.093    7.009    5.093    7.009
 dbt_tas_reserve_blocks_index     52874 15.1    0.464    0.584    5.738    6.609
 contract_pmat_3c                    10 10.0    0.241    0.378    6.360    6.369
 admm_mo_calc_rho_aux_kp             10  8.0    0.009    0.010    6.067    6.072
 cp_cfm_geeig                      1961  6.8    0.006    0.006    5.659    5.662
 mp_waitall_1                    132392 10.2    3.925    5.524    3.925    5.524
 hfx_ri_update_ks_kp_2c             145 10.0    0.002    0.002    4.957    5.122
 -------------------------------------------------------------------------------

 The number of warnings for this run is : 1
 
 -------------------------------------------------------------------------------
  **** **** ******  **  PROGRAM ENDED AT                 2024-10-09 19:59:57.876
 ***** ** ***  *** **   PROGRAM RAN ON                              9127eb36a82b
 **    ****   ******    PROGRAM RAN BY                                 <unknown>
 ***** **    ** ** **   PROGRAM PROCESS ID                                   586
  **** **  *******  **  PROGRAM STOPPED IN                                  /mnt
